# LAMMPS data file written by OVITO Basic 3.11.3

7344 atoms
5 atom types

-13.9668167292 29.3914516114 xlo xhi
-13.9503390811 29.3547965358 ylo yhi
-16.6978700812 35.1357700742 zlo zhi
-5.2907203969e-04 -0.0016284018 -3.6188696847e-04 xy xz yz

Masses

1 12.0107  # C
2 1.00794  # H
3 14.0067  # N
4 65.409  # Zn
5 6.941

Atoms  # atomic

795 1 -12.4157695467 -11.093865115 -15.6235313347 0 0 1
796 2 -12.0896723269 -11.8005149925 -14.8710869847 0 0 1
154 2 -10.1877033351 -13.0023126886 -14.9824028639 0 0 0
153 1 -10.5441880035 29.2999216457 -15.1568988013 0 -1 0
120 2 -9.4640652338 -9.842149492 -13.9138128853 0 0 0
707 3 -12.5856742007 -9.766672928 -15.574576216 0 0 1
4959 3 -13.3590855816 -9.4021990189 -12.4567227259 1 0 0
1850 2 -12.1074550137 29.3493131071 -12.2927719201 0 0 0
1867 3 -6.722417426 -10.9214699615 -13.8903335365 0 1 0
1763 3 -7.6268083014 -12.9334524174 -13.6787131761 0 1 0
1745 1 -7.6946121561 -11.6428227196 -13.2938048288 0 1 0
1851 1 -6.0572787171 -11.8031943129 -14.7874234087 0 1 0
1743 1 -6.5908373474 -13.0334403152 -14.6096417682 0 1 0
1852 2 -5.1488312674 -11.5160698445 -15.2141175662 0 1 0
1746 2 -8.3161516615 -11.2820954966 -12.4200516787 0 1 0
236 3 -0.5419279868 -10.9679039858 -14.752175519 0 0 0
170 4 -1.1195718138 -12.7226133805 -15.7997367277 0 0 0
221 1 -0.9831860391 -10.5695474379 -13.5093031831 0 0 0
222 2 -1.3334955079 -11.2585788757 -12.7437190202 0 0 0
36 2 -3.3659809035 -9.5188829144 -13.2298769229 0 0 0
223 1 -0.2875499601 -9.7832904243 -15.4022968567 0 0 0
62 3 -0.7637663591 -9.2283762 -13.3333646 0 0 0
2205 3 -1.8991037889 29.3286677418 -14.5367172741 0 0 1
224 2 0.0923544819 -9.7421834397 -16.4104842193 0 0 0
2537 1 4.2137008886 -12.4586297734 -12.4516227026 0 0 0
2538 2 3.097336256 -12.3921649586 -12.4054812846 0 0 0
2505 1 5.1295643582 -12.79891099 -13.4636116473 0 0 0
2506 2 4.9405552098 -13.1642153541 -14.5154194345 0 0 0
142 2 3.9076830282 -9.9858110258 -12.7558699458 0 0 0
2610 3 4.8537106392 -9.2532175532 -14.6215567795 0 0 0
2594 2 9.6220075935 -12.2170192623 -15.3585275901 0 0 0
2512 3 6.3979326043 -12.698909408 -12.9045630648 0 0 0
3094 4 6.3308824917 -10.4204498591 -15.1137003896 0 0 1
2613 3 9.6761813458 29.3488803422 -14.1000497003 0 -1 0
3232 2 9.0816362314 -11.1641307067 -13.4815458716 0 0 1
3256 3 8.110461648 -9.685922244 -14.7199712332 0 0 1
4654 3 6.1053629248 -11.762561547 -16.5586939282 0 1 1
2593 1 10.109170223 -13.1276156565 -15.0639577064 0 0 0
3231 1 9.0025407455 -10.1307160758 -13.8206267877 0 0 1
2495 1 6.2221257957 -12.1184133202 -11.6978842254 0 0 0
2497 1 11.2989978655 -13.7051246957 -15.5700780971 0 0 0
2708 2 11.2077922192 -12.2676556275 -13.0039867926 0 0 0
2713 3 12.5641826167 -10.5811023208 -12.5259739261 0 0 0
2707 1 12.166254965 -11.919902589 -12.5854315343 0 0 0
2498 2 11.889063419 -13.3147564672 -16.3507677428 0 0 0
4625 1 14.8972405183 -13.2992811786 -16.5371495042 0 1 1
2608 2 13.0296139093 -13.7657603623 -11.4821453886 0 0 0
4650 3 15.2568633993 -12.1250143206 -15.9908410515 0 1 1
4629 1 15.193519316 -12.2427269305 -14.6260619699 0 1 1
7078 2 15.4589959658 -11.4200270842 -13.9677051859 0 1 1
4934 2 18.8313003362 -9.289894202 -15.5986342162 0 0 0
4627 1 14.8229114612 -13.6104476711 -14.350122428 0 1 1
5074 2 17.9120556497 -9.9445572626 -12.0391743585 0 0 0
5052 2 19.8858096639 -10.6337421347 -12.9397081632 0 0 0
6638 2 19.4759270702 -13.1946818749 -14.0830050713 0 1 0
6637 1 20.0523541237 -12.3419296985 -14.3657851784 0 1 0
5051 1 20.2990152352 -11.1101522731 -13.8168732586 0 0 0
6658 3 20.7333713531 -12.4197204336 -15.5819284453 0 1 0
5064 3 21.1485882579 -10.4363081784 -14.6956726357 0 0 0
6744 2 23.3321847691 -11.8995661493 -14.4072755997 0 1 0
5049 1 21.4025230141 -11.2707171141 -15.6821791981 0 0 0
6761 3 24.2171787839 -9.9239182026 -14.3594151371 0 1 0
6743 1 24.2299791361 -11.2878753703 -14.4009958937 0 1 0
6736 2 23.0945628686 -11.2526037181 -11.8308330699 0 1 0
6661 3 25.4370814429 -11.8102296731 -14.6272706418 0 1 0
6645 1 26.3226494884 -10.7577171464 -14.7719146501 0 1 0
6646 2 27.3700925755 -11.0175557926 -14.9163054762 0 1 0
6664 4 26.0154068543 -13.8148990295 -14.6291758741 0 1 0
148 2 29.0286842717 -13.4967112561 -15.5464491224 -1 0 0
147 1 28.4384060154 29.2272589332 -16.21569989 -1 -1 0
6741 1 25.5789291434 -9.5589168678 -14.48980488 0 1 0
169 4 -12.4093008054 -8.5040401491 -13.9349612389 0 0 0
164 3 -10.5214639965 -8.0959188796 -13.2637082934 0 0 0
161 3 -13.2631085431 -6.6093596387 -14.1168061883 0 0 0
139 1 -13.0295577989 -5.5526257727 -14.9846428685 0 0 0
140 2 -12.4414485041 -5.6619931518 -15.9066467303 0 0 0
119 1 -9.4088347558 -8.804800833 -13.5703953436 0 0 0
106 2 -10.0002898027 -6.0301168992 -15.005697892 0 0 0
105 1 -9.8575100586 -6.2735475955 -16.0282298833 0 0 0
143 1 -10.0383947079 -6.8360330625 -12.8899192242 0 0 0
701 1 -13.1172821133 -9.3699050485 35.0366621628 0 0 0
702 2 -13.5167480295 -8.3446021635 34.8785762257 0 0 0
141 1 -13.7583625736 -4.4848175789 -14.5460222929 0 0 0
108 2 -10.4918167624 -8.4652508905 -16.2712398176 0 0 0
136 4 -6.3472563434 -8.9534160948 -13.6388735097 0 0 0
121 1 -8.6529599498 -6.9315267391 -12.8090855019 0 0 0
134 3 -8.2679755184 -8.1811680494 -13.2499240459 0 0 0
132 3 -5.690566296 -7.9886102755 -15.315911967 0 0 0
125 1 -6.5515875492 -7.242040073 -16.1089885757 0 0 0
126 2 -7.6256459107 -7.3671613675 -15.994241861 0 0 0
115 1 -4.418291403 -7.7591680603 -15.7997730462 0 0 0
59 3 -5.0625279368 -8.7833428916 -12.1567561388 0 0 0
41 1 -0.4380028318 -8.7314020635 -14.5969418931 0 0 0
35 1 -3.7711061678 -9.0662176438 -12.3107543507 0 0 0
116 2 -3.462838108 -8.1967470959 -15.388869357 0 0 0
150 2 -0.3046742758 -5.0101415686 -16.1091407006 0 0 0
42 2 -0.3027929655 -7.671984655 -14.7992648621 0 0 0
2560 2 -0.234577993 -5.6985293998 -13.6500753629 0 0 0
2589 1 3.9817110486 -9.213719636 -13.536567736 0 0 0
2559 1 0.3633123782 -4.7730153255 -13.5136903258 0 0 0
2587 1 3.1372251781 -8.1079482563 -13.6856104019 0 0 0
2585 1 4.5177387862 -8.1287451977 -15.3971156185 0 0 0
2609 3 3.4589659962 -7.5053982418 -14.8536983226 0 0 0
2617 4 2.5980442947 -5.775641744 -15.58902934 0 0 0
2588 2 2.309785075 -7.7230866991 -13.0777742224 0 0 0
2579 3 1.5868621731 -4.6367994373 -14.1548981402 0 0 0
2582 3 4.1570893212 -4.5138154378 -15.7803759065 0 0 0
2586 2 4.8373384543 -7.9466866308 -16.4415261657 0 0 0
2568 2 5.2423361101 -5.2822052656 -14.2314741207 0 0 0
2567 1 5.203704121 -4.4781405337 -14.9271840773 0 0 0
3235 1 8.4709648451 -8.3835183504 -15.0368723405 0 0 1
3255 3 9.9358604669 -9.1989336385 -13.4703014192 0 0 1
2662 2 7.3647904982 -5.8833613969 -13.3976027661 0 0 0
3233 1 9.6441279877 -8.1231743212 -14.2684509905 0 0 1
3236 2 7.8298381644 -7.8349206823 -15.7070244114 0 0 1
3234 2 10.1182530586 -7.1310851926 -14.177275598 0 0 1
5131 3 13.9209485886 -5.8059447282 -12.9705914037 0 0 0
5009 1 13.6614184696 -7.0723286092 -12.7728963079 0 0 0
5010 2 14.427900057 -7.7834946688 -12.7634476894 0 0 0
5027 3 12.355997963 -7.298898352 -12.424223081 0 0 0
5115 1 12.7178985987 -5.1318407827 -12.8291000729 0 0 0
5007 1 11.7515570793 -6.0731799343 -12.5375245945 0 0 0
3263 4 11.3379312993 -9.1077605489 -12.0840890675 0 0 1
5124 2 12.565617283 -5.6728403488 -16.130383833 0 0 0
5123 1 13.3521390025 -4.9931350174 -16.4838611188 0 0 0
5008 2 10.7203503129 -6.0772274431 -12.2991890226 0 0 0
4932 2 14.7355632029 -8.198731342 -15.6013152016 0 0 0
5130 3 14.6329162924 -4.8122488383 -15.8308702638 0 0 0
4933 1 17.9114812115 -8.8045427722 -15.236947158 0 0 0
5134 4 15.4767449231 -5.486148956 -14.2193713473 0 0 0
4956 3 16.370970473 -7.3087806208 -14.5517493722 0 0 0
4935 1 17.7582791987 -7.6693676484 -14.5120848024 0 0 0
4931 1 15.7313398395 -8.299884505 -15.216114245 0 0 0
4936 2 18.5030024309 -6.9928024684 -14.0409087335 0 0 0
4955 3 16.6582686144 -9.2238875744 -15.7203737243 0 0 0
2670 2 18.4745200705 -4.2135010092 -14.8107227516 0 0 0
4964 4 22.5148985215 -8.8277059446 -14.4461135481 0 0 0
4948 2 22.4625298849 -5.810721808 -14.8146810158 0 0 0
4962 3 22.2874241063 -7.3194814925 -13.2292303945 0 0 0
4947 1 22.2225571186 -6.0508308125 -13.7908744268 0 0 0
6760 3 21.7659392528 -5.1367185233 -12.9396606544 0 1 0
4949 1 21.8988141633 -7.1733985014 -11.9029385221 0 0 0
5104 2 24.6670361991 -4.3697695449 -11.9265988503 0 0 0
4961 3 22.734899452 -7.9292384437 -16.3261035873 0 0 0
137 1 29.2038093614 -6.1571264627 -13.173115783 -1 0 0
6742 2 25.7139622908 -8.5178222577 -14.4861503809 0 1 0
162 3 28.9410459277 -4.8860691721 -13.3635713307 -1 0 0
138 2 28.8071936659 -6.6824300099 -12.3568746945 -1 0 0
5044 2 24.814510729 -8.0426998236 35.0811946835 0 0 -1
976 2 -10.9287873051 -3.4057292397 -14.0958586871 0 0 0
552 2 -11.2113749391 -0.6340489488 -15.6458997261 0 0 1
975 1 -10.0647756522 -2.8620040908 -13.8403833389 0 0 0
1075 1 -9.8295382992 -1.9134231731 -12.8391845401 0 0 0
982 3 -8.9422368913 -2.8908285911 -14.6231211516 0 0 0
112 2 -12.6179257903 -2.4143918007 -12.1251128479 0 0 0
135 4 -9.2453650774 -3.3589331686 -16.5640329951 0 0 0
551 1 -11.5881887522 -1.3076833061 -16.4541620651 0 0 1
1081 3 -8.6001373454 -1.3932048676 -13.0263751039 0 0 0
965 1 -8.1232874614 -1.9854973409 -14.1292441992 0 0 0
966 2 -7.2030176891 -1.7681827867 -14.5594457592 0 0 0
1629 3 -5.9036654812 -0.4343262653 -12.936567273 0 0 1
1439 1 -5.5336320811 -0.0952888596 -14.2721256907 0 0 1
1631 4 -7.7195575962 0.0741807197 -12.0632488991 0 0 1
1613 1 -4.9736897679 -1.4032781715 -12.6233397129 0 0 1
1457 3 -4.4168790979 -0.6933959168 -14.6781136715 0 0 1
1437 1 -4.0694005508 -1.5970845218 -13.6397668629 0 0 1
1438 2 -3.166858277 -2.1970417749 -13.7431184691 0 0 1
734 2 -1.6113371418 -0.2535830099 -15.4899950508 0 0 1
1600 2 -3.5166188344 -3.7975242424 -16.4261754075 0 0 1
2667 1 0.1396057914 -3.6343049191 -12.8374840596 0 0 0
2683 3 1.1727895238 -2.739074552 -13.0538807441 0 0 0
546 2 0.8709471149 -1.4546938848 -15.4288257984 0 0 1
2562 2 2.8106947923 -3.0036286719 -14.449370933 0 0 0
2561 1 2.0208364456 -3.4049785135 -13.8608492629 0 0 0
2686 4 1.698566615 -0.8989506376 -12.4979201424 0 0 0
2569 1 4.2541613123 -3.2572073323 -16.4321937111 0 0 0
545 1 1.424824143 -0.4942566117 -15.4178650593 0 0 1
569 3 2.0314484405 -0.0421665986 -14.2428463576 0 0 1
570 3 1.734322118 0.2761574108 -16.476074476 0 0 1
2591 1 5.303131958 -2.585321195 -15.9017270956 0 0 0
2592 2 5.5723506637 -1.549504648 -16.2454347774 0 0 0
2552 2 5.3407674026 0.2683048518 -14.3316479598 0 0 0
2573 1 9.3604934822 -2.9012163724 -15.192950525 0 0 0
2612 3 5.931580271 -3.3669655761 -14.9162452157 0 0 0
2584 4 7.0301206306 -2.6701162219 -13.3394007889 0 0 0
2580 3 8.9686065 -2.5449723661 -13.8830496527 0 0 0
2575 3 6.2548789099 -0.8215357184 -12.6789321289 0 0 0
4054 2 8.2903355796 -1.0219911728 -16.5493712986 0 0 1
2563 1 10.0862055839 -2.3641134254 -13.174909848 0 0 0
4053 1 8.724235484 -0.0294326956 -16.3112924607 0 0 1
2551 1 5.754254499 0.2452337553 -13.2880803456 0 0 0
2574 2 8.5725437622 -3.0967301535 -15.9253667271 0 0 0
3012 2 9.2168072239 0.252196714 -14.1106871479 0 0 1
3011 1 9.219960174 0.5827937585 -15.1245838902 0 0 1
2681 3 6.9768772643 -4.2194799225 -11.9843788198 0 0 0
2469 1 10.7690574933 -2.8705919597 -15.1783609989 0 0 0
2470 2 11.4251709565 -2.9935856378 -16.0262354182 0 0 0
2475 3 11.2239993462 -2.5463905006 -13.9282720598 0 0 0
5116 2 12.5920009776 -4.0605202873 -13.100300238 0 0 0
3424 2 11.5977357861 -0.0758233004 -12.5184011436 0 0 0
2510 3 17.0088025743 -4.5656067528 -13.2256051937 0 0 0
2669 1 18.2513345871 -4.1899965354 -13.7345380437 0 0 0
2684 3 18.9777487037 -3.6726738248 -12.7236047929 0 0 0
5114 2 16.270063406 -3.6392229163 -16.6564734921 0 0 0
5113 1 15.2102276607 -3.8659571092 -16.6415846973 0 0 0
5034 2 21.5304662532 -3.2504995268 -16.2008646014 0 0 0
5037 1 21.1845301022 -0.5299949144 -14.4397899238 0 0 0
5780 4 21.0724751328 -3.1495042446 -12.9872624437 0 0 0
5058 3 21.4166509183 -1.8584736224 -14.5828601918 0 0 0
5033 1 21.2608742573 -2.2211468367 -15.8779327253 0 0 0
5035 1 21.018759274 -0.0628991431 -15.7509827771 0 0 0
2590 2 21.2812982574 -0.1173626471 -13.4767142161 0 0 0
4918 2 24.6340297406 -1.3363731916 -15.6231208282 0 0 0
5057 3 21.0671235432 -1.1225229177 -16.6467926916 0 0 0
5004 2 23.6578275744 -1.3992968291 -11.9715006129 0 0 0
5038 2 -13.7838337862 -3.433225616 -14.8004011129 1 0 0
4917 1 25.1821876369 -1.6984589173 -14.7848313892 0 0 0
5022 2 25.6491781599 -3.9740022293 -14.773176247 0 0 0
238 4 27.7143680236 -3.9183296688 -12.271503822 -1 0 0
5021 1 25.8639033799 -2.8974898102 -14.4331121134 0 0 0
5028 3 26.6378494567 -2.6716192542 -13.3204211519 0 0 0
5011 1 26.5508766755 -1.3663772175 -13.0741407427 0 0 0
5012 2 26.9639690286 -0.8209299212 -12.2547804661 0 0 0
4923 3 25.7058944954 -0.6976530661 -13.8538478483 0 0 0
6258 2 -11.2537667314 1.2808552428 -14.2389272766 1 0 1
6281 3 -12.6356759635 2.1258472509 -15.508541628 1 0 1
1432 2 -10.2843999906 4.2838717033 -13.7039506226 0 0 1
6257 1 -11.3646781108 1.6550102112 -15.203586037 1 0 1
6282 3 -10.2476117948 1.66152112 -15.8712410009 1 0 1
5854 2 -12.4207006126 2.1716498281 -11.8247808598 1 0 0
1431 1 -10.6620119835 5.1525366988 -14.2392799246 0 0 1
6259 1 -13.0531847415 2.778845549 -16.6105705888 1 0 1
985 4 -13.3081521938 5.2901234975 -12.6971723411 0 0 0
1440 2 -6.1696790779 0.5571645622 -14.9746801317 0 0 1
561 1 -7.341706518 2.9630971931 -12.6204499867 0 0 1
562 2 -6.3770658579 2.7842034219 -13.0580034605 0 0 1
1626 3 -8.258577494 1.9657258092 -12.4566894689 0 0 1
983 3 -4.9156406182 5.2906748267 -12.1423531463 0 0 0
1366 2 -8.3884465903 1.0391734221 -15.7797129515 0 0 1
6261 1 -9.0533818087 1.7506842815 -16.3464834643 1 0 1
733 1 -1.4204662802 0.7886430744 -15.7624493527 0 0 1
1436 2 -1.9385700107 1.9766406736 -13.8774890808 0 0 1
1435 1 -1.7026415883 1.8332088603 -14.9383023144 0 0 1
1456 3 -1.5678015963 2.9759558968 -15.6564267196 0 0 1
879 3 -3.3806860262 4.5123436977 -13.5652942549 0 0 0
1427 4 -2.2961624945 4.7120945212 -15.2002243373 0 0 1
859 1 -2.8849591939 4.4456885079 -12.326203953 0 0 0
860 2 -1.8379582513 4.0863230362 -12.1232417787 0 0 0
1442 2 0.5373678414 5.4624896906 -13.7354544699 0 0 1
547 1 2.6905951241 1.0975889871 -14.6542349644 0 0 1
548 2 3.2775117321 1.7899108926 -14.0353940987 0 0 1
549 1 2.5242483444 1.3196788291 -16.0005303939 0 0 1
3417 1 4.3151758541 4.3255868691 -15.5861970649 0 0 0
2998 2 2.9423872271 2.0555020781 35.1280025586 0 0 0
3418 2 3.3664669138 4.5798767848 -15.1646680696 0 0 0
3401 1 3.8644723503 5.6690208415 -12.2987573393 0 0 0
3426 3 4.2607090662 4.3565272378 -12.1400400769 0 0 0
2578 3 4.4587268731 4.5519094175 34.9158579689 0 0 -1
3432 3 5.331423747 3.5249743143 -15.0684861417 0 0 0
2583 4 5.6815213726 3.4456791006 -13.0703504458 0 0 0
2576 3 5.9114004365 1.4085505114 -12.5363961685 0 0 0
3419 1 6.187765601 3.3113631471 -16.1231180751 0 0 0
4047 1 8.4597520512 3.4356559211 -13.0501507505 0 0 1
4072 3 7.5029984041 4.3498128663 -12.8578671158 0 0 1
4048 2 8.3045957974 2.3880430382 -12.8154706302 0 0 1
4071 3 9.6522631096 4.0660529255 -13.3969506697 0 0 1
3420 2 7.1510264986 2.8256571473 -15.9443610991 0 0 0
4049 1 9.4111081168 5.3870776745 -13.4299465519 0 0 1
4051 1 8.0776380317 5.5662394803 -13.1408486504 0 0 1
3024 3 9.9522228038 1.6684376926 -15.5505800128 0 0 1
4079 4 10.9887837037 2.9664869768 -14.3331156184 0 0 1
5880 3 12.1659720857 4.1423108632 -15.5121452039 0 0 0
3430 3 12.2949886579 1.8303673662 -13.3116823102 0 0 0
3414 2 13.6374566667 3.5829576547 -13.2272226353 0 0 0
3413 1 13.4794942694 2.5543106436 -12.9517737938 0 0 0
5865 1 12.8043593104 3.6112413564 -16.5741371733 0 0 0
3423 1 12.4133971917 0.649528723 -12.6474631087 0 0 0
5866 2 12.617053776 2.5487540924 35.0106809686 0 0 -1
5867 1 12.8805946264 5.3580717222 -15.2767264863 0 0 0
5770 2 17.9572208444 1.8855683155 -14.1057218399 0 0 0
5769 1 18.1936163691 2.7769059926 -13.5311941578 0 0 0
6414 2 17.4210900582 3.5594049213 -16.6403439667 0 0 1
5801 1 19.4278883749 3.3889069185 -13.458716301 0 0 0
5807 3 19.4220953294 4.3791699894 -12.4694250103 0 0 0
5776 3 17.3772249909 3.3567385156 -12.5300886 0 0 0
5759 1 18.1863175108 4.2999819191 -12.0005659833 0 0 0
5036 2 20.9135315702 0.95909378 -16.1567077813 0 0 0
5802 2 20.2239531054 3.2438742281 -14.1803458722 0 0 0
6523 3 23.8967780692 1.9643515952 -14.8785852025 0 0 1
6505 1 23.0374437663 2.9686793423 -14.4689452212 0 0 1
6506 2 22.7761873898 3.0919578699 -13.4306681171 0 0 1
6355 3 22.4046310873 3.6893122161 -15.4706083748 0 0 1
6503 1 23.8271184193 2.018588931 -16.2369283837 0 0 1
6260 2 29.1952139786 2.8091409916 -16.6868483996 0 0 1
6527 4 25.4109559154 1.3589719493 -13.596019788 0 0 1
673 3 28.4813666063 4.2629770563 -13.6976086077 -1 0 1
567 1 26.8473576583 3.636905105 -15.1030636789 -1 0 1
557 1 28.0996348715 3.0251182581 -13.381532471 -1 0 1
574 3 27.08268489 2.5953401789 -14.1843306736 -1 0 1
558 2 28.5663234899 2.4102814225 -12.580479842 -1 0 1
568 2 26.0260688647 3.573329949 -15.7994283727 -1 0 1
667 1 27.7437008594 4.6175524395 -14.82551184 -1 0 1
6330 2 -9.1324488854 5.6587296094 -15.7967991427 1 0 1
1453 3 -11.8225882202 5.8431057282 -13.8608118482 0 0 1
1433 1 -10.0899406359 5.8199958429 -15.3027738369 0 0 1
1430 2 -12.701458132 7.5740033596 -14.9033862894 0 0 1
1429 1 -11.9798105458 6.7854293011 -14.7815285774 0 0 1
1454 3 -10.9460158346 6.8543322 -15.6505753808 0 0 1
874 2 -9.8192088524 9.5474155929 -13.0071846954 0 0 0
980 3 -10.1920165411 9.9086610621 -16.3105409007 0 0 0
1554 2 29.0560082867 9.8346874478 -13.5301083583 -1 0 1
861 1 -4.6111130655 5.0331511449 -13.4136302424 0 0 0
873 1 -8.8733240525 9.0543193824 -12.6598362388 0 0 0
935 1 -8.9748277873 9.9527909203 -15.697781344 0 0 0
862 2 -5.3373580931 5.2022227004 -14.2242623004 0 0 0
942 2 -5.1851931041 9.2177334117 -15.0172844726 0 0 0
880 3 -7.5230600784 9.4584498848 -12.9201125499 0 0 0
863 1 -6.7609911286 8.4377387262 -12.4377122549 0 0 0
936 2 -8.3274044347 9.0984267657 -15.4743602363 0 0 0
905 1 -8.8246475869 7.788871595 -12.118770518 0 0 0
864 2 -5.6287764476 8.4080135054 -12.5185563883 0 0 0
941 1 -4.6690649315 10.0882577148 -14.7131284939 0 0 0
1416 2 -2.6118075677 7.9631490239 -15.0438100444 0 0 1
1421 3 -1.2501586734 6.3380707596 -14.6652608899 0 0 1
1415 1 -1.7544495503 7.6246445644 -14.5123587204 0 0 1
1451 1 -0.9211558138 8.3336400529 -13.7137089741 0 0 1
1452 2 -0.932118703 9.3475436221 -13.3068489487 0 0 1
1441 1 -0.1260770068 6.288244392 -13.9365343983 0 0 1
1458 3 0.0704897002 7.4899810346 -13.291313665 0 0 1
838 2 -2.4777387975 9.8248053342 -15.2154347842 0 0 0
1361 1 3.8233659852 9.3531939467 -12.8165397191 0 0 1
1362 2 3.851932531 8.9284250026 -13.8247104011 0 0 1
3402 2 4.4669374276 6.34756639 -12.9203959035 0 0 0
3428 3 5.2693935433 7.6831367009 -16.5800045549 0 0 0
1608 2 1.3663195031 6.3733518632 -16.1629166332 0 0 1
1385 3 4.8199755396 10.0859801498 -12.3144132397 0 0 1
1618 2 -0.1645508858 10.0268248366 -15.4325942545 0 0 1
4050 2 10.2033202206 6.0153845409 -13.6589456466 0 0 1
3385 1 5.8703215488 9.6353777417 -15.7804305029 0 0 0
3384 2 5.839650518 6.4970146333 -14.9445489711 0 0 0
3383 1 5.7731401527 7.5309354392 -15.3418826913 0 0 0
3398 3 6.2023901631 8.6892713815 -14.8169464149 0 0 0
3400 4 6.6454252283 9.4419695685 -12.9527800238 0 0 0
3380 2 8.7167241577 9.2027807973 -15.2886919968 0 0 0
4052 2 7.632734618 6.5033449191 -12.97644891 0 0 1
3436 2 9.3052843419 8.6821311136 -11.25752774 0 0 0
4056 2 10.8803554553 7.8465826702 -15.5619338193 0 0 1
5868 2 12.5669594158 5.9292830318 -14.4104588983 0 0 0
3307 1 13.8617759651 8.719580316 -15.0167830803 0 0 0
3308 2 13.293029002 7.8496941387 -14.9057598018 0 0 0
3306 2 11.409098155 7.6128569907 -12.2697655141 0 0 0
3488 2 12.418709711 10.0271884198 -12.477569904 0 0 0
3415 1 15.2230497691 8.9120048281 -14.7554138864 0 0 0
5005 1 13.9102974325 5.4046761005 -16.159273317 0 0 0
5877 3 18.5016388596 8.844979787 -15.275786278 0 0 0
5859 1 18.8600009501 8.3407079066 -14.0271324881 0 0 0
5860 2 18.8589746854 8.9343510956 -13.0972252404 0 0 0
5857 1 18.6122721586 7.7331308377 -16.0769973834 0 0 0
3416 2 15.922939911 8.1645690211 -14.4465245722 0 0 0
5777 3 19.2548699498 7.038017615 -14.0252261965 0 0 0
5761 1 18.9797796663 6.6024637 -15.3460370297 0 0 0
5762 2 19.1269583567 5.6259596762 -15.6581414632 0 0 0
5750 2 22.9412299553 6.0016564435 -14.4441220067 0 0 0
5749 1 23.1735626619 6.2868859911 -13.4276645603 0 0 0
5813 4 20.3173227021 6.2573753252 -12.490358248 0 0 0
5771 3 22.2603345112 6.5516160332 -12.4083949608 0 0 0
5751 1 24.3894231887 6.5240413317 -12.872622569 0 0 0
668 2 27.8562805238 5.5866735359 -15.3419013249 -1 0 1
1374 2 26.7079319984 9.1705045859 -13.0850032296 -1 0 1
5752 2 25.3555428002 6.4369328448 -13.3572112852 0 0 0
1591 3 27.2450310779 9.3013433618 -16.1830138478 -1 0 1
1543 1 26.4131766284 9.0362863692 -15.1640299785 -1 0 1
1560 3 27.0716382923 9.2803456756 -13.9992620824 -1 0 1
1544 2 25.3779464546 8.6589043011 -15.208458721 -1 0 1
1585 1 28.4508360684 9.6724975737 -15.6425742593 -1 0 1
1553 1 28.4010383113 9.655760992 -14.2818847303 -1 0 1
1586 2 29.2239391253 9.9047992048 -16.362082577 -1 0 1
959 1 -10.7498215319 11.1724081404 -16.0894028784 0 0 0
937 1 -9.95105739 11.873356256 -15.2453928177 0 0 0
938 2 -10.0722617992 12.8730170312 -14.8256476865 0 0 0
960 2 -11.8446557865 11.2677913224 -16.3304333023 0 0 0
950 3 -8.785306371 11.135902331 -15.0493995823 0 0 0
952 4 -7.2659830869 11.4443546417 -13.7186632502 0 0 0
948 3 -5.3267754424 11.2098955085 -14.260805716 0 0 0
944 3 -7.3978432303 13.5700447526 -14.5354212856 0 0 0
923 1 -7.7883905312 13.9805855228 -15.7840659995 0 0 0
919 1 -7.552396965 14.5810447425 -13.6986438101 0 0 0
920 2 -7.3286533824 14.6214320227 -12.6383082121 0 0 0
924 2 -7.7566452632 13.3497577976 -16.663330359 0 0 0
932 2 -4.5001012886 13.1983598629 -13.7101388335 0 0 0
931 1 -4.3952797423 12.2005534316 -14.1147004452 0 0 0
837 1 -3.3107450034 10.419965652 -14.8743687633 0 0 0
843 3 -3.1249621971 11.7469984988 -14.3949977987 0 0 0
1393 4 -1.4692924418 12.7256100574 -14.0282649617 0 0 1
3990 2 -2.3155709503 13.931205184 35.1345212603 0 0 0
1616 2 0.9023108598 14.1265857091 -15.3852369572 0 0 1
1630 3 0.1186927101 12.1324387599 -14.9974865791 0 0 1
3839 3 -1.604486743 14.5119084448 -14.7847434351 0 0 1
3989 1 -2.1300780591 14.7546906094 -15.9911757804 0 0 1
1615 1 0.9424763389 13.0668766455 -15.5782546309 0 0 1
1617 1 0.3932975032 10.9658058165 -15.6438501702 0 0 1
1367 1 1.4272523867 11.190969656 -16.6038211201 0 0 1
3832 2 4.9761253538 15.0136754352 -12.6889971774 0 0 1
1022 2 3.2624440627 14.6731558882 -14.5019613175 0 0 0
3454 2 1.6010011997 14.4745547881 -12.3676594489 0 0 0
3379 1 9.060757808 10.0061634534 -14.6543507216 0 0 0
3386 2 6.2254536938 10.6522021034 -15.7887340249 0 0 0
3396 3 8.2455311073 10.4252679306 -13.6070271675 0 0 0
6682 2 6.203017052 12.7711109802 -13.6077112979 0 0 0
3838 3 6.4154597679 13.7704021228 -13.8353678884 0 0 1
3821 1 7.3988678472 14.1482208295 -14.6967694069 0 0 1
3389 1 8.860470997 11.475390592 -13.0236447309 0 0 0
3822 2 8.0440925224 13.4342816443 -15.137880655 0 0 1
3831 1 5.8109025816 14.9471307148 -13.3728614521 0 0 1
3291 3 10.1710804732 10.7639272131 -14.7131699186 0 0 0
3285 1 10.0432031833 11.7028307916 -13.693316485 0 0 0
3390 2 8.4653730809 11.8070399061 -12.0553293836 0 0 0
3327 3 13.3447068311 9.8823225617 -15.5626313674 0 0 0
3309 1 14.4436921656 10.6733453831 -15.7813914976 0 0 0
3286 2 10.8478223863 12.4110736831 -13.3288869779 0 0 0
3371 1 12.685824379 14.0314086385 -13.0099936938 0 0 0
3372 2 12.8369870338 13.9272561262 -14.0524813851 0 0 0
3810 2 12.0207284367 13.7057052942 -15.8161510716 0 0 1
3370 2 13.0263438684 11.9722972084 -12.6516861835 0 0 0
3369 1 12.7416595714 12.938532836 -12.225193553 0 0 0
3841 4 11.5293867895 10.4260169848 -16.2811799057 0 0 1
3310 2 14.5088275114 11.6697806842 -16.1778349591 0 0 0
3431 3 15.5929418299 10.1050550594 -15.3271695351 0 0 0
5881 4 17.5399296027 10.6768208019 -15.7500567086 0 0 0
5850 2 17.0336199342 11.5507655527 -12.6186043158 0 0 0
5874 3 18.3558169358 11.8921780911 -14.3028813476 0 0 0
5849 1 17.9956852448 11.771755907 -13.0063791858 0 0 0
5853 1 19.7784188577 12.1154254287 -14.3266987034 0 0 0
5873 3 19.0707154454 11.7927716325 -12.2274009041 0 0 0
5932 2 19.2421960324 15.2822339053 -12.8389080348 0 0 0
5851 1 20.1673769028 12.1400026644 -12.9808965078 0 0 0
3406 2 20.2585015511 12.192574974 -15.2858024394 0 0 0
5852 2 21.1628806916 12.1539346679 -12.565841515 0 0 0
7316 2 24.1030219308 13.6743426568 -15.2314105536 0 0 1
7315 1 24.7707080001 14.521815587 -15.0547869847 0 0 1
7314 2 26.4570365282 13.8654877738 -13.7616934812 0 0 1
1785 1 -10.5919210401 18.97625191 -15.1151216746 0 0 0
1786 2 -11.3514387105 18.8647494483 -14.3126444456 0 0 0
946 3 -9.3149777507 18.5619526169 -14.8962311816 0 0 0
1800 3 -10.78856084 19.5919414991 -16.3103201404 0 0 0
6678 2 -13.427881112 17.7686947454 -15.0171083347 1 0 0
1028 2 -11.7093942659 17.3023407713 -12.5452383165 0 0 0
921 1 -8.1442958165 15.3321611101 -15.6522338447 0 0 0
943 3 -7.9947208404 15.69804941 -14.3636005996 0 0 0
1797 3 -6.9560202072 18.3761794169 -12.8294102504 0 0 0
951 4 -8.5596598302 17.4025592008 -13.4929452109 0 0 0
1779 1 -5.7517136441 18.234449497 -13.471621399 0 0 0
1780 2 -5.6385350674 17.7070947873 -14.4899604302 0 0 0
922 2 -8.3246639071 16.0508298359 -16.4360482213 0 0 0
925 1 -8.6320792 18.9818444765 -16.0101955211 0 0 0
926 2 -7.5744776758 18.788421104 -16.1287207138 0 0 0
1697 3 -4.7334826961 18.8784161725 -12.7374982624 0 0 0
3823 1 -1.3307026571 15.735152691 -14.2628239934 0 0 1
3824 2 -0.8507855682 15.8399624987 -13.3481399068 0 0 1
3987 1 -1.6785054311 16.6956325681 -15.2042514842 0 0 1
3988 2 -1.5252778897 17.7732018016 -15.2704772532 0 0 1
1837 1 0.0987355063 18.8729158051 -12.8669070409 0 0 0
1699 4 -2.8536386083 19.1702626227 -13.2027842081 0 0 0
4007 3 -2.2742488806 16.053678573 -16.3064526892 0 0 1
1846 2 -3.2634102812 19.4289428026 -16.2888751484 0 0 0
1838 2 0.3377363181 19.4296471972 -13.7664329541 0 0 0
1861 3 -1.1534606949 18.5992085014 -12.3568173339 0 0 0
1021 1 2.9099503622 15.4883669949 -15.1514876265 0 0 0
3474 2 2.192583776 18.5000855115 -15.6255531533 0 0 0
1025 1 2.3874695439 17.477118052 -15.7162436496 0 0 0
1046 3 2.6838008107 16.6793929358 -14.6057103633 0 0 0
1734 4 2.7320010204 17.387540383 -12.6913774242 0 0 0
4174 3 4.4059338607 18.7002262905 -12.5280251017 0 0 0
1045 3 2.7154477518 15.3952444516 -16.4411536312 0 0 0
1706 2 4.5034684108 18.9731487819 -14.734460738 0 0 0
4153 1 4.975718732 19.1644364331 -13.7042479447 0 0 0
1023 1 2.4015405824 16.6762058526 34.9989431112 0 0 -1
1862 3 1.0302440137 18.0813418814 -12.2504495259 0 0 0
3932 2 6.2251347884 17.0343561587 -13.9780955494 0 0 1
3931 1 6.4990980499 16.0062902596 -14.0560494513 0 0 1
3937 3 7.4007316344 15.4865701802 -14.9041478574 0 0 1
4144 3 8.9942936364 17.9942199217 -15.1245419914 0 0 0
3399 4 8.2879411512 16.627649688 -16.2638222578 0 0 0
4137 1 8.8722651741 18.291239438 -13.7871295705 0 0 0
4138 2 8.6491149951 17.4766171393 -13.0416059553 0 0 0
4127 1 9.3724786574 19.1692629396 -15.7241274331 0 0 0
4128 2 9.5203282872 19.1442794296 35.0339797615 0 0 -1
4169 1 9.3063321499 19.5717738922 -13.5228118964 0 0 0
4175 3 9.5527231216 20.1488314564 -14.8196148433 0 0 0
3392 3 12.2947732582 15.1971836023 -12.6320190734 0 0 0
4864 2 12.6339843197 18.1482844484 -14.887075767 0 0 1
5842 3 14.0244559476 17.557422958 -13.0008218842 0 0 0
4863 1 12.6775176034 18.5032286941 -15.9449428794 0 0 1
4230 2 15.2709719741 15.806362124 -14.366608843 0 0 0
5824 2 20.0756027207 14.7532767265 -15.5059118129 0 0 0
6669 1 17.9953586813 18.3286038838 -12.8474730346 0 0 0
5822 2 17.899850538 16.2278739673 -14.3304430365 0 0 0
4229 1 15.9794582087 15.917090199 -15.1597512416 0 0 0
6667 1 18.9978253154 18.814208077 -13.6019196936 0 0 0
4246 3 17.2641512637 16.2291971792 -15.119192427 0 0 0
6690 3 16.9235039451 19.1840975834 -13.0000519181 0 0 0
4222 2 17.9530028481 17.3944850712 -12.3063781728 0 0 0
4345 3 15.5910723787 15.9032964106 -16.4791904574 0 0 0
4239 1 17.7880107909 16.2824363951 -16.3935209898 0 0 0
4240 2 18.8213145684 16.6504092838 -16.6113678713 0 0 0
5931 1 20.132701574 15.5908957052 -13.3923689153 0 0 0
5823 1 20.470438997 15.3939966926 -14.7110496648 0 0 0
5826 2 22.62212403 17.5766690062 -13.7014203383 0 0 0
5843 3 21.5856386207 16.189291908 -14.9264407056 0 0 0
5825 1 21.8712813009 16.8256515061 -13.7790372131 0 0 0
5947 3 21.0689282476 16.4159052812 -12.7686689403 0 0 0
5847 4 22.8514816317 16.1441167465 -16.5724344127 0 0 0
7336 3 24.5232617087 15.8065187041 -15.6284177851 0 0 1
6270 2 22.5428916742 19.8170644798 -15.8281380075 0 0 1
6668 2 19.9846069514 18.4659312025 -13.7347978541 0 0 0
6269 1 21.8999567986 19.441960715 -16.5885017444 0 0 1
6385 3 20.6515013287 19.929407546 -16.5384577308 0 0 1
7313 1 25.9698489481 14.5753029959 -14.4114002514 0 0 1
6442 2 -13.463141351 15.0572190928 -12.9102002808 1 0 1
7312 2 25.7023187172 17.6326369923 -15.6251857943 0 0 1
7311 1 25.5712951998 16.5485302877 -15.2769718564 0 0 1
6677 1 29.3619231263 18.673026576 -14.7562845989 0 0 0
7335 3 26.499372258 15.8543359688 -14.5048240424 0 0 1
6793 3 28.2615478764 18.6897506338 -13.9805328499 0 0 0
6596 4 27.288924033 17.2087178424 -13.1589773693 0 0 0
6441 1 29.1663052304 15.0675026207 -12.0755808598 0 0 1
6694 3 -13.7229161605 19.8558448049 -15.2339197685 1 0 0
1796 3 -11.3525783454 22.9150983925 -12.9210495935 0 0 0
7076 2 -11.7241472079 23.6737700755 -15.4842729582 1 0 1
1775 1 -10.9991310281 21.6648228218 -13.3859993303 0 0 0
1753 1 -9.6288806072 21.6467389047 -13.5078276042 0 0 0
1776 2 -11.8014189181 21.0229943762 -13.6625713131 0 0 0
1751 1 -10.2008141633 23.5611853609 -12.6986588501 0 0 0
6595 4 -13.1797632263 23.7109179462 -12.4860983804 1 0 0
7075 1 -11.4147747841 23.4940274867 -16.5157198098 1 0 1
1787 1 -9.5087100709 19.6593215061 34.992752778 0 0 -1
1766 3 -9.1128394224 22.8304612362 -13.0130509701 0 0 0
1754 2 -8.9708400462 20.8045736759 -13.6282162127 0 0 0