# LAMMPS data file written by OVITO Basic 3.11.3

7344 atoms
5 atom types

-15.7429658298 31.1676007128 xlo xhi
-15.7243116271 31.1287690818 ylo yhi
-18.8212084168 37.2591084072 zlo zhi
-5.7241836617e-04 -0.0017618151 -3.9153599452e-04 xy xz yz

Masses

1 12.0107  # C
2 1.00794  # H
3 14.0067  # N
4 65.409  # Zn
5 6.941

Atoms  # atomic

168 3 -14.9799850416 -14.7003087794 -15.5749164485 0 0 0
138 2 -13.3186965132 -12.6207131444 -16.2083485603 0 0 0
137 1 -13.8633968059 -11.739593017 -16.4456625496 0 0 0
162 3 -15.2106260198 -11.6563774911 -16.4847274997 0 0 0
155 1 -14.0923015045 -14.9183320058 -14.5651810973 0 0 0
165 3 -11.150419613 -12.0704884747 -15.3767090329 0 0 0
153 1 -14.7424855129 -15.5882457737 -16.573974654 0 0 0
154 2 -15.2519448843 -15.5749823946 -17.5424817827 0 0 0
146 2 -10.704880768 -13.4621987584 -16.9450100055 0 0 0
145 1 -10.5307117122 -13.1829444199 -15.909789283 0 0 0
49 1 -9.8154641913 -13.8366071634 -14.9227552772 0 0 0
50 2 -9.2303911647 -14.7059571344 -14.9957783256 0 0 0
805 1 -8.1424835225 -11.2296726352 -18.800482993 0 0 1
151 1 -1.779846231 -13.1861286895 -14.2454729799 0 0 0
45 1 -1.6856864914 -11.0635859598 -14.7021479173 0 0 0
150 2 -1.5209703611 -14.8084706683 -18.8166179881 0 0 0
152 2 -1.5636280024 -14.2465064408 -14.277987861 0 0 0
167 3 -1.0873402737 -12.2596776408 -15.0276433013 0 0 0
170 4 0.2424557468 -12.7433625814 -16.4720246553 0 0 0
2616 3 1.133330024 -14.4209824406 -15.7583610729 0 0 0
2603 1 2.3623849078 -14.5287131153 -15.1608715838 0 0 0
2604 2 2.6809715652 -13.7173557293 -14.5339512059 0 0 0
2601 1 0.8564747307 -15.6559721923 -16.217233829 0 0 0
166 3 -0.661186335 -12.8470768496 -18.3828376987 0 0 0
2610 3 1.6831584989 -11.402904371 -16.3325477014 0 0 0
2586 2 3.6521562057 -12.1309717155 -15.9156243578 0 0 0
2613 3 6.369650855 -11.2221759027 -15.934853705 0 0 0
2594 2 7.3719828761 -11.827300538 -17.7780928285 0 0 0
2593 1 7.3023017004 -11.9422155862 -16.6816462993 0 0 0
2595 1 6.5671756537 -11.6689951943 -14.6746458793 0 0 0
2513 3 7.4801883847 -12.6477161738 -14.5773231257 0 0 0
2585 1 3.0301078979 -11.3213591719 -16.2886857679 0 0 0
2497 1 7.9587321996 -12.8369965253 -15.8551092021 0 0 0
2498 2 8.7531886081 -13.5751630626 -16.0150147955 0 0 0
2708 2 10.106044518 -12.9806156079 -17.5278283999 0 0 0
2707 1 11.1987096247 -12.973797026 -17.4452204086 0 0 0
2607 1 11.9392242164 -12.6084389417 -16.3111732651 0 0 0
2608 2 11.6404453949 -12.3426492495 -15.2948198718 0 0 0
2502 2 10.2411882426 -14.855100826 -14.2873262713 0 0 0
2713 3 12.0519417269 -13.2184926638 -18.4709156849 0 0 0
2614 3 13.2805135845 -12.7417715571 -16.6578544475 0 0 0
2618 4 15.1177793203 -12.5801017575 -15.6216416406 0 0 0
2597 1 13.3153064893 -13.055917668 -17.9981087987 0 0 0
5064 3 15.9899636468 -14.3125181079 -15.4361586472 0 0 0
5058 3 16.2619705259 -11.470161349 -16.7496789589 0 0 0
5049 1 16.6175684611 -15.2125126238 -16.2232685198 0 0 0
5050 2 16.8018839662 -15.1291281149 -17.2621331576 0 0 0
2598 2 14.1896122265 -13.1933010343 -18.5852490557 0 0 0
5041 1 21.1332998745 -12.9767806399 -16.4468354544 0 0 0
5042 2 20.8423421049 -13.3632807947 -17.453332464 0 0 0
5061 3 21.0789277602 -11.6199736813 -16.1675786416 0 0 0
5033 1 17.5916251296 -11.5659256158 -16.7825757838 0 0 0
5034 2 18.1997351517 -12.3063531421 -16.2387085218 0 0 0
5043 1 21.5105980727 -11.4443222065 -14.8987550755 0 0 0
4945 1 21.6774198135 -13.5891504407 -15.3907467918 0 0 0
4946 2 21.9076845727 -14.5923184961 -15.0924443734 0 0 0
4950 2 26.2610075839 -13.5946944638 -14.5762800329 0 0 0
4961 3 21.9000486652 -12.6077384754 -14.4075680753 0 0 0
5046 2 30.1390263049 -12.3621636375 -18.4777494646 0 0 0
5066 4 30.5717451744 -13.2146214292 -15.7183479147 0 0 0
5062 3 29.1844194846 -13.6027556399 -17.0449581075 0 0 0
5045 1 29.2997003845 -13.0355102114 -18.2393844257 0 0 0
5055 1 28.0404475096 -14.3466200411 -17.1104959017 0 0 0
5155 1 27.507908278 -14.1940136828 -18.3619057038 0 0 0
5056 2 27.7673849299 -14.9566159567 -16.2930995496 0 0 0
5156 2 26.5688942728 -14.6308173797 -18.7508856662 0 0 0
161 3 -13.2411550951 -10.5650225551 -16.8363863653 0 0 0
169 4 -11.145582925 -10.3654318135 -16.5338362863 0 0 0
141 1 -15.4843382763 -10.3473920854 -16.9516716861 0 0 0
139 1 -14.3005039956 -9.661707855 -17.0469911783 0 0 0
140 2 -14.0880204154 -8.6325819678 -17.3231310281 0 0 0
164 3 -10.7150325586 -8.6637105164 -15.2322505977 0 0 0
702 2 -8.2858864023 -10.6336978462 -16.6319824894 0 0 1
701 1 -8.6494733158 -10.6134329883 -17.6512499399 0 0 1
707 3 -9.8998252901 -10.0686828937 -18.0359474443 0 0 1
120 2 -9.2833277631 -7.6623906865 -16.4613469363 0 0 0
119 1 -9.7920689776 -7.7088086911 -15.4888707589 0 0 0
134 3 -9.5003146845 -6.9212397238 -14.4114287196 0 0 0
126 2 -5.3191241185 -6.5200812494 -15.3616938573 0 0 0
125 1 -5.8324263384 -6.4885196352 -16.3280328324 0 0 0
42 2 -2.5585590622 -8.0633186682 -15.5729616473 0 0 0
41 1 -2.4250248182 -7.3373815592 -14.7772748698 0 0 0
22 2 -4.3168374355 -6.9917130261 -17.870422012 0 0 0
21 1 -5.2432255748 -6.5417236646 -17.5834582563 0 0 0
46 2 -1.4392691143 -10.0818926263 -15.1356852102 0 0 0
142 2 0.1722837063 -9.947148638 -16.7540986129 0 0 0
2589 1 1.2243235591 -10.1335837547 -16.5232228371 0 0 0
2668 2 0.7273070327 -6.6313723143 -15.0903986346 0 0 0
2587 1 2.3447848299 -9.3365917421 -16.6669480568 0 0 0
2588 2 2.4318181975 -8.2631113058 -16.8039711212 0 0 0
2609 3 3.4772861179 -10.0766816798 -16.5236669638 0 0 0
2617 4 5.4062261084 -9.7815753697 -16.784740063 0 0 0
2612 3 6.0407274153 -8.0337608049 -15.9124248456 0 0 0
2567 1 6.7827525997 -7.0830227255 -16.5392573893 0 0 0
2591 1 5.6232716886 -7.405297385 -14.7293767153 0 0 0
2568 2 7.1958720763 -7.2221244301 -17.5151809066 0 0 0
5037 1 15.9490539903 -10.3801143418 -17.4939304219 0 0 0
2590 2 14.929069925 -10.057878758 -17.678082563 0 0 0
5057 3 18.1563027294 -10.5485494817 -17.4655333017 0 0 0
5065 4 20.1257433101 -10.1453604919 -17.2480436066 0 0 0
5060 3 20.7159431965 -8.606327563 -16.0421782962 0 0 0
5039 1 20.654552722 -8.3955745331 -14.6341247803 0 0 0
5017 1 21.5356270564 -7.4234988466 -14.2949415342 0 0 0
5035 1 17.1172626874 -9.7859707328 -17.905389265 0 0 0
5015 1 21.6316781744 -7.683906785 -16.4788335303 0 0 0
5044 2 21.7685762388 -10.5073382107 -14.406153629 0 0 0
5036 2 17.1975941059 -8.8992141583 -18.5193128595 0 0 0
5598 2 23.1391209851 -9.7124005553 -17.7522407889 0 0 1
5597 1 22.6671648882 -9.8786538574 -18.7060363063 0 0 1
5030 3 22.1211227802 -6.9733548086 -15.4806429701 0 0 0
5016 2 21.9080921663 -7.4926477586 -17.5181461615 0 0 0
5038 2 30.3665659615 -10.0230264885 -17.01437399 0 0 0
5120 2 28.2770681071 -6.6557348004 -15.0478129897 0 0 0
219 1 -15.4857035553 -5.4559049349 -16.1121469764 0 0 0
112 2 -14.8988222595 -4.4474773601 -18.0332186356 0 0 0
131 3 -14.0095791014 -3.7774243477 -16.1738969801 0 0 0
111 1 -14.8061720494 -4.5964803258 -16.9585553082 0 0 0
135 4 -12.9576890627 -2.5365874616 -17.2351443825 0 0 0
113 1 -14.2129032241 -4.1329359147 -14.8807672611 0 0 0
235 3 -15.1517039693 -5.0942954645 -14.8091861105 0 0 0
104 2 -11.469104021 -4.9075947814 -15.9889652336 0 0 0
127 3 -11.1025102343 -2.8959512347 -16.6257047244 0 0 0
132 3 -7.0986801808 -5.8996616627 -16.4665864083 0 0 0
103 1 -10.8086441037 -4.0489907506 -15.9729366441 0 0 0
105 1 -10.065255281 -2.0444120195 -16.3695929809 0 0 0
128 3 -9.5711609118 -4.0013102877 -15.3686381053 0 0 0
107 1 -9.0985176813 -2.7484177298 -15.6874747826 0 0 0
136 4 -8.1381596478 -5.3795787821 -14.8083028078 0 0 0
115 1 -7.1623252416 -5.5946005103 -17.7917165542 0 0 0
108 2 -8.1613626086 -2.3886506104 -15.2355391355 0 0 0
116 2 -8.009122645 -5.0605190246 -18.2366378077 0 0 0
223 1 -2.2054618488 -5.9833675123 -14.7358669334 0 0 0
224 2 -2.1095720639 -5.2945924125 -15.5741390895 0 0 0
27 3 -6.1030667641 -6.0069157721 -18.5118699632 0 0 0
2667 1 1.222005841 -5.6750864761 -15.2374658699 0 0 0
2579 3 2.4772578985 -3.8697077428 -15.8746449245 0 0 0
2559 1 2.1286236188 -5.2189983482 -16.2055687931 0 0 0
2561 1 1.7158042949 -3.594563163 -14.8012373706 0 0 0
2583 4 2.4923959147 -2.27847184 -17.2428183903 0 0 0
2558 2 -0.3112001224 -2.5943241944 -16.4398748082 0 0 0
2683 3 0.9002520983 -4.6056255469 -14.4066770196 0 0 0
2562 2 1.7379740584 -2.6404176081 -14.3384189854 0 0 0
2560 2 2.5258746714 -5.7757652454 -17.052365406 0 0 0
2569 1 6.1739974627 -6.1044359326 -14.6991788723 0 0 0
2582 3 6.9517644481 -5.9221080618 -15.8314974952 0 0 0
2552 2 5.3851491289 -2.7998845853 -18.7228183741 0 0 0
2551 1 5.5053753181 -2.3899049597 -17.7239292168 0 0 0
2576 3 6.5408642946 -2.5586467865 -16.8636604183 0 0 0
2575 3 4.5139477817 -1.6813272242 -17.1318463607 0 0 0
2584 4 7.6566119163 -4.1731260707 -16.9605207652 0 0 0
2555 1 6.149011355 -1.934139632 -15.6803515882 0 0 0
2556 2 6.8509520759 -2.0632112478 -14.8601914758 0 0 0
2566 2 10.2549471734 -5.9393044149 -15.7596831867 0 0 0
2581 3 9.6110361809 -3.9095272018 -16.2471981339 0 0 0
2663 1 9.9291970701 -2.7354272586 -15.6371207466 0 0 0
2565 1 10.2216733957 -4.8885542928 -15.5047968594 0 0 0
2664 2 9.4755164475 -1.763621526 -15.9325370999 0 0 0
2661 1 10.9223121758 -4.2647328401 -14.4853683698 0 0 0
2681 3 10.6776413933 -2.9104465842 -14.5261376994 0 0 0
5453 1 17.071353442 -2.8907885005 -18.2475328594 0 0 1
5454 2 17.055887611 -3.98217922 -18.087838831 0 0 1
5008 2 16.619273633 -5.5231402343 -15.8020807519 0 0 0
5007 1 16.4650274362 -4.9056395141 -14.9214532816 0 0 0
5569 3 17.5727715668 -1.9935664689 -17.3937256028 0 0 1
5027 3 17.3055660117 -3.8576968924 -14.5693402595 0 0 0
5000 2 20.1950622778 -4.5942190894 -15.2301147217 0 0 0
4999 1 20.7801503491 -3.709922846 -15.3803272231 0 0 0
5023 3 20.3278927425 -2.4757480176 -15.4169339114 0 0 0
5031 4 18.2986439097 -2.3660672945 -15.5871517736 0 0 0
5001 1 21.4890090422 -1.6835974401 -15.5665638735 0 0 0
5022 2 26.4074663711 -4.9941408621 -15.785834388 0 0 0
5021 1 26.036747433 -5.1408940761 -16.8051065275 0 0 0
5028 3 24.7124216058 -5.0285952322 -17.1770815128 0 0 0
5011 1 24.6996890328 -5.3256241867 -18.534636913 0 0 0
5024 3 22.1032353454 -3.8108415231 -15.5437827391 0 0 0
5003 1 22.553758015 -2.5187362146 -15.6924139836 0 0 0
5032 4 23.3215707294 -5.2987020294 -15.7493449279 0 0 0
5004 2 23.6176992286 -2.3239704041 -15.762964186 0 0 0
220 2 30.6886597644 -6.2012670156 -16.4101153988 -1 0 0
4917 1 26.7797722997 -5.5046689332 -17.9196815799 0 0 0
4918 2 27.8789213669 -5.6404599305 -18.1334802848 0 0 0
130 3 -13.3734034824 -0.8039420468 -16.3955509862 0 0 0
969 1 -14.1201601782 0.0890130241 -17.0077705414 0 0 0
109 1 -13.1199230892 -0.2989384569 -15.1349963631 0 0 0
971 1 -13.7989805189 0.9084598697 -15.0038846926 0 0 0
970 2 -14.4046343782 0.0115084015 -18.0424852989 0 0 0
984 3 -14.4065159537 1.1678064942 -16.2459416956 0 0 0
110 2 -12.4486140121 -0.8589549201 -14.4811605039 0 0 0
106 2 -10.0703409172 -1.0290793129 -16.7527538271 0 0 0
870 2 -6.3309860708 0.7716894249 -15.4275045163 0 0 0
869 1 -6.3414527722 0.5555558793 -14.3763552859 0 0 0
3420 2 -2.0202040967 -0.3685508381 -15.915853649 0 0 0
975 1 -3.8847320277 2.1904611204 -17.7108932544 0 0 0
982 3 -2.5498943906 1.9454366806 -17.8630079227 0 0 0
976 2 -4.3253496978 2.4733083082 -16.7736845255 0 0 0
212 2 -4.593478025 -0.9192169529 -14.1689456763 0 0 0
983 3 -1.7925789466 2.950709898 -14.5136405551 0 0 0
2557 1 -0.1476325226 -1.530275477 -16.3609906618 0 0 0
3432 3 -0.1977413279 0.7195006494 -16.0220331392 0 0 0
2578 3 1.1405207215 -1.0448420765 -16.4640672974 0 0 0
3417 1 1.1105955272 0.2808094653 -16.2102512627 0 0 0
3419 1 -0.96176921 -0.4483453623 -16.0633011742 0 0 0
3418 2 1.9592228129 0.9406043066 -16.3092915329 0 0 0
986 4 -1.2197692861 2.4637420986 -16.3194760574 0 0 0
2553 1 4.8882666745 -1.4060301431 -15.8255170457 0 0 0
2554 2 4.2374600567 -0.8412586025 -15.1551904875 0 0 0
3314 2 5.8480309188 1.155066234 -15.443772326 0 0 0
3313 1 5.4885819294 2.1570003473 -15.6770974689 0 0 0
3410 2 4.5402707279 2.2784895787 -17.7501345853 0 0 0
3409 1 4.8348718498 2.6843388861 -16.7803793029 0 0 0
3318 2 9.0232149282 2.6169290082 -15.0643835608 0 0 0
2660 2 10.3968725492 0.2757150289 -15.2244602056 0 0 0
3317 1 9.0216094707 1.7620700239 -14.4122043235 0 0 0
2659 1 9.7294361512 0.5934330077 -14.4350965307 0 0 0
3424 2 12.0223800752 2.8847054294 -14.6821669805 0 0 0
3523 1 11.7953374589 2.6515973831 -16.8520016191 0 0 0
4054 2 11.2110073311 -1.2576396419 -18.8165701263 0 0 1
3414 2 14.501269813 1.0951022875 -17.5861327681 0 0 0
3413 1 13.695460246 1.6881879206 -17.1522730761 0 0 0
5866 2 16.0982107813 -0.3796567704 -15.5534923 0 0 0
5865 1 16.6574861322 -0.1775315167 -14.6495813267 0 0 0
3529 3 12.6459814133 2.1479203126 -17.8139616438 0 0 0
3430 3 13.6274905853 1.8775338799 -15.805517201 0 0 0
3423 1 12.4210300439 2.5395371956 -15.6182541899 0 0 0
5563 1 17.4425122823 -0.7610768575 -18.0399439073 0 0 1
5564 2 17.6853142705 0.1612618052 -17.4943489975 0 0 1
5026 3 17.7920957983 -0.8126277705 -14.3722274642 0 0 0
5002 2 21.4755086526 -0.5859387899 -15.4862112258 0 0 0
5858 2 20.3054531119 1.6634249567 -15.1400158864 0 0 0
5857 1 20.7870375473 2.2480401034 -14.3729458933 0 0 0
5850 2 17.3812993377 2.6155559795 -15.9872038655 0 0 0
5878 3 30.7612123466 3.0153348935 -18.6320379169 0 0 0
5864 2 28.7100811609 2.9631835977 -16.6244850145 0 0 0
5862 2 29.3272940116 1.4264083877 -18.3459015734 0 0 0
5882 4 -15.229172648 3.0733338457 -16.8871882854 1 0 0
954 2 -12.2441744186 3.2127153764 -17.5858002247 0 0 0
978 3 -13.8226510505 4.3715266897 -16.7617705791 0 0 0
953 1 -12.5573791676 4.1911890584 -17.2050213054 0 0 0
957 1 -13.9494430113 5.7180792638 -16.4674138284 0 0 0
955 1 -12.765441144 6.3080249621 -16.7399735046 0 0 0
977 3 -11.8518325607 5.3469729143 -17.1941901652 0 0 0
956 2 -12.4800713447 7.3334198469 -16.7424257751 0 0 0
5854 2 -14.8752177961 6.1495077629 -16.1161481377 1 0 0
881 3 -8.1971093481 3.5495240594 -15.1962856513 0 0 0
865 1 -6.9935579566 3.8895534523 -15.8830648705 0 0 0
961 1 -7.3596696937 4.6665182445 -16.9725877089 0 0 0
962 2 -6.6857448162 5.0958615101 -17.7087641789 0 0 0
964 2 -10.2158011998 3.9469196883 -15.7433082027 0 0 0
985 4 -10.1373828581 5.4963502675 -18.2566183101 0 0 0
963 1 -9.1643243766 4.1063832417 -15.9579833442 0 0 0
981 3 -8.7317349418 4.7819614614 -17.0350932459 0 0 0
936 2 -8.0557085497 7.2059626333 -16.832012539 0 0 0
980 3 -9.5793453436 7.3333924194 -18.2937182244 0 0 0
866 2 -6.0423650205 3.5360719024 -15.4761623453 0 0 0
862 2 -2.2622274945 5.0569807642 -14.2898826326 0 0 0
3402 2 1.6757109221 3.5048163898 -15.9254783522 0 0 0
3401 1 1.1601454066 3.979857002 -16.7689427176 0 0 0
3426 3 -0.1409929104 3.8210739651 -17.0522384171 0 0 0
3405 1 -0.3783721037 4.6016271328 -18.1599547783 0 0 0
3403 1 0.7831201165 5.3129519038 -18.4863969584 0 0 0
3425 3 1.7472729744 4.8859582979 -17.6068198748 0 0 0
958 2 -1.3488836209 4.6875559202 -18.6313602284 0 0 0
3429 3 4.6295615441 4.0311611706 -16.5379457607 0 0 0
3411 1 5.1469349799 4.2683507722 -15.2932108213 0 0 0
3433 4 3.7679946267 5.3414384188 -17.6481447792 0 0 0
3428 3 4.0147011737 7.158281836 -16.6302344753 0 0 0
3329 3 5.6315387131 3.1516614534 -14.7273615125 0 0 0
3407 1 3.8098429707 7.2986781662 -15.3139920189 0 0 0
3408 2 3.0955433583 6.731343539 -14.7328897215 0 0 0
3412 2 5.2661224432 5.2586949045 -14.9346458999 0 0 0
3524 2 10.7890670565 3.0817845846 -17.0251639696 0 0 0
5874 3 15.8890590857 3.8096570322 -14.9018838032 0 0 0
5849 1 17.060183104 3.5726828079 -15.5756535111 0 0 0
3406 2 15.0556502752 5.6720193759 -14.292561586 0 0 0
5853 1 15.9259698104 5.1771257229 -14.6825946424 0 0 0
5851 1 17.0752746857 5.7138370339 -15.2448912401 0 0 0
5873 3 17.8438961497 4.6887097134 -15.7472674222 0 0 0
5881 4 19.9003729163 5.0340699783 -15.621461274 0 0 0
5876 3 20.9315833497 6.5900067647 -14.6630558886 0 0 0
6419 3 20.4779636935 5.5262181596 -17.511784212 0 0 1
5877 3 20.8111820856 3.644786826 -14.4317005879 0 0 0
6414 2 19.8234761317 7.6109940684 -17.9458497367 0 0 1
6413 1 20.2678363458 6.6970745272 -18.2694375259 0 0 1
6507 1 21.1749194884 4.7221732708 -18.3626288282 0 0 1
6508 2 21.4884532544 3.7367648331 -18.0510539349 0 0 1
5831 1 21.7393144657 7.5192468539 -15.2308465798 0 0 0
5852 2 17.5186396112 6.6967099199 -15.0805144245 0 0 0
5832 2 22.0027295921 7.5457923555 -16.2787317935 0 0 0
5879 3 30.3833686127 3.5187609862 -15.3760534332 0 0 0
5863 1 29.0578784796 3.4547707377 -15.7256213473 0 0 0
5755 1 28.3769177651 4.1058554899 -14.7160802567 0 0 0
5756 2 27.3386925772 4.3601826629 -14.676589733 0 0 0
5757 1 30.4203468134 4.1204721971 -14.1556778666 0 0 0
5754 2 27.8784359161 7.4945023709 -14.8985566789 0 0 0
1484 2 -13.0975134506 10.3989202319 -17.4531834279 0 0 1
1483 1 -13.5489188709 11.0597271134 -18.1448741201 0 0 1
930 2 -14.62723758 11.3869247447 -15.5787187885 0 0 0
929 1 -14.329848968 12.0738461551 -14.7962281886 0 0 0
920 2 -10.0236646101 12.0937731802 -15.5405157971 0 0 0
959 1 -10.3897798845 8.3820227105 -18.7446819072 0 0 0
935 1 -8.6917454182 7.8562045681 -17.444025516 0 0 0
950 3 -8.8057004725 9.214554542 -17.3600703684 0 0 0
952 4 -7.5896845305 10.8678031022 -17.0170802162 0 0 0
949 3 -6.8019248616 10.6650214175 -15.2163639334 0 0 0
937 1 -9.9428820337 9.5408694515 -18.1346617285 0 0 0
938 2 -10.3077928562 10.5587328988 -18.0873427733 0 0 0
948 3 -6.3098916161 11.0883796921 -18.5789068784 0 0 0
1031 1 -6.2312218335 11.8043772034 -14.7900734754 0 0 0
1040 2 -3.0243566195 9.4183402405 -14.2243144047 0 0 0
3395 3 1.7026145283 11.2020572687 -15.8473837939 0 0 0
3375 1 1.7855196828 9.8056911161 -15.8760179191 0 0 0
3483 1 0.8251643713 9.2630001074 -15.0597682478 0 0 0
3484 2 0.5788691644 8.2134802059 -14.9864140049 0 0 0
3376 2 2.4422468636 9.3271127366 -16.5869754118 0 0 0
3377 1 0.6903079464 11.4230345778 -14.9663785667 0 0 0
3499 3 0.1735877251 10.3225233678 -14.3789406937 0 0 0
3932 2 -0.1207284312 11.2901488823 -17.6865909768 0 0 1
3931 1 0.0785790684 11.8048058494 -18.5838720345 0 0 1
3384 2 5.3679566231 8.1752736086 -17.9926922038 0 0 0
3383 1 4.9655264547 8.0505510752 -17.0033526609 0 0 0
3385 1 4.7086806933 8.2917041782 -14.8296401589 0 0 0
3368 2 4.7961167892 11.6235514154 -15.3206310228 0 0 0
3398 3 5.4447042281 8.7344409257 -15.9510375347 0 0 0
3367 1 5.2046410258 11.7339988867 -16.3172434212 0 0 0
3392 3 6.4920691974 11.6285735962 -16.6754611252 0 0 0
3400 4 7.0993837607 9.8546946899 -15.8268668537 0 0 0
3391 3 4.4182616321 12.2590137758 -17.2920754709 0 0 0
3371 1 6.573922524 12.0364005984 -18.0081498537 0 0 0
3369 1 5.2748434283 12.3639545274 -18.40000846 0 0 0
3372 2 7.5268318635 12.0589311518 -18.5220661154 0 0 0
3390 2 9.9339113571 8.9603102865 -15.2362998149 0 0 0
3396 3 8.6642901021 9.1666949917 -16.9213170238 0 0 0
3285 1 10.8193902863 9.2654990034 -17.3271013677 0 0 0
3379 1 8.8625123707 9.3325215991 -18.2478190118 0 0 0
3389 1 9.8862874365 9.1004311324 -16.3316139927 0 0 0
3286 2 11.8818798028 9.3418791367 -17.3236911877 0 0 0
3291 3 10.1661033914 9.4375635407 -18.5268231929 0 0 0
5932 2 15.6516335464 8.7007661982 -15.6181667358 0 0 0
5947 3 16.6219167442 9.9947043644 -14.2043025066 0 0 0
5931 1 16.2724324371 9.5693578097 -15.4723221979 0 0 0
5823 1 16.8554101969 10.3645796752 -16.396096546 0 0 0
5824 2 16.7712689085 10.370996801 -17.4725640138 0 0 0
3488 2 13.7049123328 7.9177472592 -14.9742314278 0 0 0
6270 2 16.6531611543 12.0525473071 -18.7260589257 0 0 1
5825 1 17.402780606 11.0977975003 -14.3822232157 0 0 0
5843 3 17.6021380775 11.3027032988 -15.7120974899 0 0 0
5816 2 20.9384501917 10.3912113626 -16.2521238077 0 0 0
5815 1 21.3006074144 11.3075273891 -15.7871338239 0 0 0
5846 3 22.2564264792 8.3628505538 -14.3543107529 0 0 0
5844 3 24.9268009242 9.602407541 -16.0597097749 0 0 0
5848 4 23.5713997006 9.8916056153 -14.5625121701 0 0 0
5827 1 24.6706066217 9.2938361308 -17.3529418669 0 0 0
5837 1 26.2425281008 9.9837421508 -16.0378682555 0 0 0
5828 2 23.7618549846 8.935998693 -17.8021191378 0 0 0
5739 3 25.7465328178 9.4623185163 -18.1263461317 0 0 0
5840 3 22.4862477578 11.4656961429 -15.1491437115 0 0 0
5838 2 26.6972331312 10.2727677759 -15.0864718565 0 0 0
5733 1 26.7584333773 9.957607644 -17.3158745393 0 0 0
5936 2 29.091822276 10.1101630778 -15.2005924164 0 0 0
5734 2 27.7503215497 10.1378501861 -17.7592575453 0 0 0
5753 1 28.6326263016 8.056293226 -14.3568498311 0 0 0
5935 1 29.20215092 9.2950337887 -14.5025495493 0 0 0
1489 3 -13.3648218985 12.4166520268 -18.0802593801 0 0 1
947 3 -13.3108605703 12.9266219911 -15.0147643891 0 0 0
951 4 -12.4934867804 13.4728608792 -16.6467296771 0 0 0
946 3 -13.3439009362 15.533447494 -16.5553198886 0 0 0
1785 1 -14.0637541909 16.2579650436 -15.6453508744 0 0 0
1786 2 -14.5271077791 15.7929879684 -14.7491858604 0 0 0
925 1 -13.0231188522 16.454616469 -17.5166476608 0 0 0
926 2 -12.4811527258 16.1408652225 -18.4331693225 0 0 0
943 3 -10.6496151852 13.6830509409 -16.927112028 0 0 0
944 3 -8.7850402001 12.4779568564 -17.2607494097 0 0 0
919 1 -9.8630701285 12.6839167266 -16.4635994597 0 0 0
923 1 -8.919999993 13.4094442987 -18.3170340322 0 0 0
921 1 -10.01655817 14.2089890477 -18.0532755352 0 0 0
922 2 -10.3945036374 15.0239781553 -18.6384280009 0 0 0
1682 2 -10.8570194956 16.8893978354 -14.7310358633 0 0 0
942 2 -4.7472792979 12.6242739413 -18.1898701461 0 0 0
1032 2 -6.1356137515 12.6470964529 -15.5165906447 0 0 0
1891 1 -3.8194957435 16.6394626493 -18.0421956415 0 0 0
1792 2 -3.4378199335 16.5675523211 -15.8020066967 0 0 0
1791 1 -3.1391215958 16.7955886462 -16.8363523083 0 0 0
1028 2 -5.2084434738 14.8998129353 -14.2672061246 0 0 0
1892 2 -4.8630760044 16.3992383106 -18.1636628477 0 0 0
3937 3 1.1152832343 12.7361012288 -18.6270904185 0 0 1
3394 3 2.0368620014 14.430394703 -16.0014602608 0 0 0
4234 2 0.6087615083 15.2739035075 -17.3899174959 0 0 0
4233 1 1.0798252915 15.350148161 -16.4164649693 0 0 0
3399 4 2.4526215171 12.7266416301 -16.9821328871 0 0 0
4248 3 0.8317288913 16.2606267185 -15.434698973 0 0 0
3373 1 2.3497532572 14.8347414425 -14.7154973605 0 0 0
4235 1 1.5858773218 15.9133165426 -14.3442686536 0 0 0
3378 2 0.3666259183 12.4303005844 -14.7500088123 0 0 0
3374 2 3.042636693 14.191788495 -14.1919183454 0 0 0
4130 2 7.639490469 17.0523677064 -16.2970176 0 0 0
6696 3 16.4602833037 16.1105416977 -14.585612744 0 0 0
6682 2 16.6310099472 14.9269092853 -16.4085848783 0 0 0
6681 1 16.9053101177 15.11136859 -15.3685224529 0 0 0
5847 4 18.5202217695 12.9102011168 -16.2731669071 0 0 0
5839 3 20.5336654619 12.4462640506 -15.7469512694 0 0 0
5842 3 17.8182571797 14.3139769183 -14.7510990078 0 0 0
5818 2 21.025638268 14.4046947649 -14.9302895152 0 0 0
5817 1 21.3348345595 13.3845920674 -15.0758369507 0 0 0
6385 3 18.1537561687 13.5160980285 -18.1649733857 0 0 1
6380 2 19.4698184735 15.194568983 -18.5776374719 0 0 1
5819 1 22.4714607748 12.7452667918 -14.6872605536 0 0 0
5820 2 23.3010568139 13.2532218682 -14.1660279883 0 0 0
6582 2 25.2202158498 16.1531572492 -14.3358517183 0 0 0
1800 3 -14.2412118321 17.5451567517 -16.0513271834 0 0 0
1787 1 -13.5014134786 17.7255639342 -17.223618468 0 0 0
1769 1 -13.3769859261 20.6024375301 -15.7492597283 0 0 0
1793 3 -12.7548155218 21.2399512702 -16.7381982764 0 0 0
1770 2 -12.8293814066 20.2443826405 -14.8838509842 0 0 0
1773 1 -14.9467114341 20.8701320179 -17.2420004605 0 0 0
1794 3 -14.6798729841 20.417987726 -15.9447741858 0 0 0
1788 2 -13.4327460671 18.6596482975 -17.7397968548 0 0 0
1778 2 -11.7532604359 18.7247077879 -16.3616673496 0 0 0
6698 4 -15.5410156437 18.8187441008 -15.161957444 1 0 0
1771 1 -13.7571929757 21.427789886 -17.7143733201 0 0 0
1801 4 -10.7977232744 21.4075665439 -16.8849912646 0 0 0
1797 3 -10.0570332517 19.9207377151 -15.702805964 0 0 0
1777 1 -10.9073180168 18.8166265429 -15.7030335665 0 0 0
1681 1 -10.4720794444 17.8758783673 -14.8447469976 0 0 0
1779 1 -9.1041813293 19.6025813815 -14.7798812682 0 0 0
1686 2 -6.3857688523 17.4373784934 -14.3122166328 0 0 0
1780 2 -8.2155197149 20.1788390209 -14.5116361036 0 0 0
1697 3 -9.3464481424 18.3861622705 -14.2311680481 0 0 0
1798 3 -1.8482753875 17.2376717641 -17.0958096574 0 0 0
1781 1 -1.7816389629 17.3625259999 -18.4106646731 0 0 0
1802 4 -0.5181675559 17.7395823343 -15.6949083809 0 0 0
4242 3 0.3817873018 19.482110183 -16.3331950799 0 0 0
4217 1 1.6989032947 19.3158158448 -16.6140632732 0 0 0
4218 2 2.1109251624 18.3002779484 -16.6493380364 0 0 0
4241 3 2.3801753064 20.5069212016 -16.7648581151 0 0 0
4221 1 0.2139780401 20.8719159081 -16.1591044952 0 0 0
1774 2 -0.7556584138 21.3056795407 -15.8734453192 0 0 0
4219 1 1.4173002907 21.4663514719 -16.4907620315 0 0 0
4129 1 7.0210126046 17.8869269379 -16.0115930283 0 0 0
4226 2 6.3343214663 18.7736956198 -17.8829832099 0 0 0
4225 1 6.315047391 18.7339360328 -16.8005013244 0 0 0
4245 3 5.5304538109 19.5483413285 -15.9738035509 0 0 0
4227 1 5.7064232818 19.0772931221 -14.7256328539 0 0 0
4145 3 6.6064755997 18.0688518955 -14.693089568 0 0 0
4249 4 4.5930675287 21.0108168283 -16.7607494049 0 0 0
4876 2 7.017426158 21.0009889427 -18.6020270522 0 0 1
4787 3 4.8993989059 21.2034153098 -18.7141644061 0 0 1
4134 2 9.9578294196 17.0740866867 -14.2227544349 0 0 0
4340 2 10.5833868986 17.6490730515 -17.2059103725 0 0 0
4339 1 11.6685350006 17.5215775151 -17.151844269 0 0 0
4240 2 12.2225737904 17.9462242162 -15.0026399487 0 0 0
4230 2 14.5921921105 17.2830042739 -18.4435374516 0 0 0
4239 1 12.4566211499 17.6390181951 -16.0409875686 0 0 0
4345 3 12.4523853156 17.4045172809 -18.3022195296 0 0 0
4229 1 13.7106436332 17.3577854098 -17.8097323564 0 0 0
4250 4 15.3009701078 17.5820131387 -14.8833792748 0 0 0
4246 3 13.7920920031 17.5446954805 -16.4700068898 0 0 0
6690 3 16.416687414 18.9942746099 -15.6336814162 0 0 0
6669 1 16.0591278775 20.240977447 -16.0720790101 0 0 0
4222 2 15.0111128363 20.3963301112 -16.2960294877 0 0 0
6667 1 17.1808654938 20.9054172105 -16.3946732881 0 0 0
6665 1 17.7466388044 18.8792823696 -15.6802364702 0 0 0
6666 2 18.2920912645 17.9936853819 -15.354768093 0 0 0
6689 3 18.2940864468 20.0476681911 -16.1011081327 0 0 0
6697 4 20.0724656852 20.642903977 -16.4595109815 0 0 0
6693 3 21.5534662256 19.5637003871 -15.5493981028 0 0 0
6675 1 21.3264871571 18.8955848974 -14.4279271006 0 0 0
7235 3 20.551039642 20.4737335323 -18.4500936913 0 0 1
6578 2 24.2768328288 17.7843788304 -14.9158113344 0 0 0
6674 2 23.211934752 19.5248493008 -16.885355642 0 0 0
6673 1 22.7959897671 19.1068803913 -15.9750206448 0 0 0
6577 1 23.3142746827 18.2490824061 -15.0325179848 0 0 0
7324 2 22.3509333561 19.3007036839 -18.6428930185 0 0 1
6788 2 26.8602412242 17.5808247063 -17.1360145762 0 0 0
6787 1 27.8953645085 17.7784665247 -17.0119242175 0 0 0
6688 2 28.2364557854 18.6820559431 -15.0251585295 0 0 0
6687 1 28.5690170713 18.3073322528 -15.9479269213 0 0 0
6694 3 29.8928532669 18.3632848141 -16.3400266045 0 0 0
6793 3 28.7988222097 17.456326501 -18.0588556694 0 0 0
6677 1 29.9637725738 17.8607040991 -17.6077866621 0 0 0
6670 2 30.9563480301 20.8766970842 -17.6096902226 0 0 0
6678 2 30.9569158328 17.7220951015 -18.0646594891 0 0 0
1772 2 -13.5505034922 21.9584037655 -18.6220800944 0 0 0
1744 2 -12.6904885049 25.6721814991 -17.3617899122 0 0 0
1743 1 -13.1609502139 26.1219591897 -16.4598387271 0 0 0
1851 1 -13.7903168394 25.4341538619 -15.4917380534 0 0 0
1852 2 -13.7793869014 24.3620056802 -15.2887358652 0 0 0
1867 3 -14.4313909443 26.3630223639 -14.6253478744 0 0 0
1775 1 -10.6002766182 23.3565251422 -14.7054199931 0 0 0
1796 3 -10.253059356 23.0866031624 -16.0293509 0 0 0
1751 1 -9.2796236866 23.9633098963 -16.3473338766 0 0 0
1752 2 -8.7646078326 23.9850065422 -17.3001067935 0 0 0
1766 3 -8.9556281731 24.7930550224 -15.3759038424 0 0 0
1768 4 -7.6012650694 26.3143260317 -15.438611333 0 0 0
1753 1 -9.8451628503 24.457216159 -14.3372440907 0 0 0
1748 2 -7.2851126632 26.0546050677 -18.4733380676 0 0 0
1747 1 -6.307595997 26.2593948373 -18.0560851079 0 0 0
1764 3 -6.1340736705 26.3372123479 -16.7229634077 0 0 0
1856 2 -2.789044201 24.8912249009 -14.8725280815 0 0 0
1674 2 -3.7540720697 22.3295618608 -14.6778223421 0 0 0
1659 3 -5.1223621133 26.3267589703 -18.7412121666 0 0 0
4300 2 -0.0441025401 24.3291243388 -15.1311074486 0 0 0
4220 2 1.673002054 22.4921110817 -16.4383264105 0 0 0
4299 1 0.1680557367 25.3696829629 -15.3306296874 0 0 0
4315 3 -0.2997807067 26.3574388681 -14.5259134123 0 0 0
4192 2 1.6190925145 25.4933952624 -17.0463732107 0 0 0
4191 1 0.9660769266 25.9477801187 -16.2987816376 0 0 0
4224 2 2.9766367708 22.9628300871 -14.3468982872 0 0 0
4200 2 6.3847084399 23.2518881925 -16.8348658943 0 0 0
4199 1 5.7392440895 23.4481095634 -15.9773189295 0 0 0
4214 3 5.9105200227 24.3963052991 -15.0690777766 0 0 0
4244 3 4.6334457284 22.6968966443 -15.7756419934 0 0 0
4223 1 3.9880351998 23.2676349181 -14.6806497354 0 0 0
4216 4 7.2781684353 25.7629280721 -15.067628037 0 0 0
4201 1 4.7710743699 24.3238356545 -14.2719677592 0 0 0
4184 2 3.9751804223 26.2969506708 -15.8020148427 0 0 0
4195 1 9.0851907032 25.635401584 -17.5476559025 0 0 0
4212 3 8.8591148893 25.5343026936 -16.2442002187 0 0 0
4101 1 11.0234345904 25.5304371985 -16.6357413772 0 0 0
4102 2 12.1111928396 25.5504926681 -16.5524326868 0 0 0
4205 1 10.0846545454 25.4208963219 -15.6323848891 0 0 0
4206 2 10.1752845667 25.2148243699 -14.5787308086 0 0 0
4107 3 10.3694277916 25.6589221217 -17.8656617023 0 0 0
4196 2 8.3135488992 25.8385059175 -18.2854111077 0 0 0
4304 2 13.2007552686 23.7205274315 -14.216271658 0 0 0
6747 1 16.4774840741 25.1245439972 -14.5448538874 0 0 0
6748 2 16.3965968243 24.0906063912 -14.2353023649 0 0 0
6639 1 17.4442825248 25.8676338571 -15.1499177637 0 0 0
6640 2 18.3731633018 25.570695133 -15.5975195074 0 0 0
6668 2 17.3206648536 21.927383832 -16.7171248131 0 0 0
6692 3 20.4525630761 22.5213195698 -15.846678976 0 0 0
6647 1 21.4964466284 23.340066106 -16.2032943479 0 0 0
6662 3 21.6166431134 24.45211825 -15.4365922606 0 0 0
6672 2 18.9473431731 22.8048461402 -14.2521934199 0 0 0
6671 1 19.8544167044 23.1671840051 -14.7644745778 0 0 0
6649 1 20.5725122887 24.2966996511 -14.4903546441 0 0 0
6648 2 22.202634081 23.0863369842 -16.9983041867 0 0 0