# LAMMPS data file written by OVITO Basic 3.11.3

7992 atoms
5 atom types

-15.6921328034 31.3541328034 xlo xhi
-15.6922329958 31.3543329958 ylo yhi
-18.242329817 36.4496298168 zlo zhi

Masses

1 12.0107  # C
2 1.00794  # H
3 14.0067  # N
4 65.409  # Zn
5 6.941 # Li

Atoms  # atomic

31 1 -12.7673947181 -11.8365860819 -15.7406099334 0 0 0
215 2 -12.0717885215 -12.4328809166 -15.1902914016 0 0 0
271 3 -13.5539842167 -15.2482204705 -15.0796095072 0 0 0
279 3 -14.0756664649 -11.9463359219 -15.6203269139 0 0 0
95 1 -12.7574290177 31.3194082157 -13.9743521004 0 -1 0
5623 4 -14.8506478593 -13.674966215 -15.0349981586 1 0 0
47 1 -14.6240528301 -10.8863799232 -16.3671393016 0 0 0
143 2 -9.6418182579 -13.1187819559 -17.8096447214 0 0 0
55 1 -9.3807749757 -12.9680596037 -16.7421458485 0 0 0
84 1 -8.7441447613 -13.8488647083 -15.8777749378 0 0 0
188 2 -8.6751574071 -14.9415655776 -16.001520816 0 0 0
231 3 -9.4061573615 -11.7155267627 -16.1323123053 0 0 0
12 1 -8.854305668 -11.8727762542 -14.9053600735 0 0 0
260 3 -8.448519544 -13.1674373969 -14.732323029 0 0 0
180 2 -8.6701758922 -11.1141029863 -14.1229027301 0 0 0
196 2 -5.5817136811 -15.1586924653 -15.2064202348 0 0 0
79 1 -2.7624053537 -14.2016605969 -15.8409958037 0 0 0
70 1 -3.5882924092 -14.1340990121 -16.9451950668 0 0 0
92 1 -5.44970726 -15.5002464862 -14.1735577127 0 0 0
175 2 -2.9576786751 -14.4320875271 -14.789257782 0 0 0
158 2 -4.5797111232 -14.5594058754 -16.9835463271 0 0 0
131 2 -1.3849569779 -10.544472666 -15.8792626854 0 0 0
255 3 -1.5084903836 -13.6973152669 -16.2198897292 0 0 0
295 4 0.0196707728 -13.2606211205 -14.8338915373 0 0 0
2943 3 1.1458032849 -11.6322561297 -15.7606764772 0 0 0
2935 3 1.4277133871 -14.8007915457 -14.896242018 0 0 0
2695 1 2.5065749783 -11.6485338508 -16.0265536513 0 0 0
2879 2 3.1569501402 -12.5192361804 -15.8532077459 0 0 0
183 2 -1.4737397386 -10.6041976341 -13.6819875849 0 0 0
7 1 -1.6085480873 -13.4707012263 -17.5862493601 0 0 0
2676 1 6.1180214856 -11.8909342721 -14.4382066513 0 0 0
2719 1 6.9676807356 -12.1983772451 -16.4077873878 0 0 0
2807 2 7.0893214425 -12.1689065752 -17.4573131358 0 0 0
2895 3 5.9776539448 -11.5481823309 -15.7388765207 0 0 0
2924 3 7.1183515636 -12.7873745363 -14.3165090629 0 0 0
2748 1 7.6484459826 -12.9591043226 -15.541172769 0 0 0
2852 2 8.5236951245 -13.5868869154 -15.7402178774 0 0 0
2822 2 11.5479503028 31.2867572418 -17.4856136649 0 -1 0
2860 2 10.3862302401 -15.2026204139 -14.2689902648 0 0 0
2734 1 12.4237160894 -15.1181361683 -17.3111501861 0 0 0
2785 2 8.0749912527 -15.0664788698 -17.3549189308 0 0 0
2839 2 12.9763555449 -15.422692302 -15.1560767208 0 0 0
2743 1 13.1810896714 -14.9773938848 -16.1601973467 0 0 0
2919 3 14.2136535422 -14.1008130066 -16.4327088383 0 0 0
2959 4 15.4710286862 -13.3253875493 -15.217264313 0 0 0
2671 1 14.1190525437 -13.7827545481 -17.7452183445 0 0 0
5607 3 16.6873763957 -11.7116980513 -15.589534199 0 0 0
5599 3 17.117908651 -14.5322258787 -15.0979349779 0 0 0
2927 3 14.7104466372 -12.9046632111 -13.3640932519 0 0 0
5359 1 17.9960793562 -11.522314163 -15.3799729643 0 0 0
5543 2 18.5298392117 -12.1818234578 -14.7021927873 0 0 0
5559 3 21.6058493961 -11.4928396302 -15.6636356145 0 0 0
5471 2 21.8077549714 -12.9452750819 -17.282258032 0 0 0
5383 1 21.9892678051 -12.6626324312 -16.2578355116 0 0 0
5423 1 17.7618939112 -14.9548128177 -13.9530604202 0 0 0
5527 2 17.5951974212 -14.4732249138 -13.0038784936 0 0 0
5340 1 22.1146113428 -11.5460119904 -14.4254642906 0 0 0
5588 3 22.9073691504 -12.659949664 -14.2155324192 0 0 0
5412 1 22.8034173163 -13.3670766926 -15.4487066613 0 0 0
5516 2 23.3762494924 -14.2952300217 -15.6545360324 0 0 0
5420 1 25.409409856 -15.3163501755 -13.7978801597 0 0 0
5524 2 25.2132675966 -14.865856593 -14.7906956131 0 0 0
5583 3 30.5064738067 -13.9902869247 -16.1477507472 0 0 0
5398 1 28.4415608951 -13.557717578 -16.9682570678 0 0 0
5407 1 29.170469246 -13.6445896231 -15.8217237195 0 0 0
5335 1 30.5024094064 -14.0815231595 -17.4893153188 0 0 0
5503 2 28.9217873371 -13.4051819171 -14.7951888939 0 0 0
5486 2 27.3938138021 -13.3194566752 -17.0640102669 0 0 0
5495 2 31.3343486695 -14.3723862585 -18.0386569302 0 0 0
5574 3 29.3215310861 -13.7974673404 -18.0287576855 0 0 0
5459 2 30.2424936972 -11.0940171834 -16.0953414885 0 0 0
223 3 -12.3800081226 -10.7915272488 -16.5010071836 0 0 0
39 1 -13.5571567432 -10.1401944183 -16.9380976725 0 0 0
99 1 -13.8293530856 -8.9737167799 -17.6253993499 0 0 0
119 2 -13.045033399 -8.3780352526 -18.2109330146 0 0 0
107 1 -15.1825311926 -8.547737669 -17.6775093342 0 0 0
151 2 -11.7661579067 -8.6142940941 -13.9064717163 0 0 0
189 2 -14.047334546 -7.1859404149 -15.3150979647 0 0 0
63 1 -10.8716604194 -8.2164839182 -14.3794360109 0 0 0
287 4 -10.412039942 -10.2664467702 -16.8362822385 0 0 0
239 3 -10.4985538296 -8.5034328548 -15.7447351198 0 0 0
90 1 -9.825537199 -7.5369832062 -13.8173266273 0 0 0
18 1 -9.2620476708 -7.859779328 -15.8747107798 0 0 0
202 2 -8.8345548715 -7.7390105218 -16.8492941816 0 0 0
266 3 -8.8152888439 -7.283371506 -14.7521314907 0 0 0
155 2 -3.3433708516 -6.9530809112 -17.386337778 0 0 0
93 1 -2.0180032742 -6.9734407465 -13.7302601934 0 0 0
197 2 -1.9865402509 -6.499629819 -14.7109921472 0 0 0
67 1 -4.3729458405 -6.6648678955 -17.1191765256 0 0 0
170 2 -4.6717317338 -6.4170053945 -14.8607744809 0 0 0
74 1 -5.0334626923 -6.4863135578 -15.8927381558 0 0 0
148 2 -3.6991109947 -8.3715387524 -13.7405509177 0 0 0
60 1 -2.8082144737 -7.9536409197 -13.282842155 0 0 0
111 1 -0.8418538273 -8.7744719204 -17.0701370977 0 0 0
103 1 -0.6121040349 -9.9655538562 -16.3517951358 0 0 0
2887 3 2.9182887789 -10.4472997777 -16.5734174109 0 0 0
2711 1 0.6974271 -10.4197334059 -16.239517009 0 0 0
2703 1 1.8190421779 -9.7331732143 -16.8307528485 0 0 0
2763 1 1.5173736448 -8.6378269247 -17.6064033076 0 0 0
2853 2 0.8370707731 -6.8696816607 -15.5688032671 0 0 0
2771 1 0.2486791423 -8.1465348965 -17.7670919007 0 0 0
2783 2 2.4134631126 -8.0941258063 -18.0626420234 0 0 0
2682 1 6.4308299567 -8.0207964736 -15.5035976836 0 0 0
2903 3 5.2831936763 -8.612672363 -15.1755229293 0 0 0
2930 3 6.847374617 -7.1355398997 -14.554957215 0 0 0
2951 4 4.7873720704 -10.1730232649 -16.5496525666 0 0 0
2866 2 6.9849358332 -8.1593099306 -16.4142023543 0 0 0
2727 1 4.9502527528 -8.1075120894 -13.9180710299 0 0 0
2844 2 5.4382372771 -11.5848934512 -13.6462802988 0 0 0
2754 1 5.8782011479 -7.1463027228 -13.5698843969 0 0 0
2815 2 4.0656779214 -8.324176979 -13.3147948669 0 0 0
2819 2 11.9608245665 -8.3082886412 -17.2374226909 0 0 0
2834 2 10.1841229998 -8.235878803 -15.2434846442 0 0 0
2731 1 11.0772706963 -7.6761326916 -17.1488729174 0 0 0
2738 1 10.1778496366 -7.6202196153 -16.1322514377 0 0 0
2907 3 10.6905098658 -6.7140426541 -18.1094626888 0 0 0
2847 2 14.290884782 -10.912170848 -13.7634323603 0 0 0
2795 2 14.2061605378 -10.9132015482 -16.6497133817 0 0 0
5375 1 16.3428075287 -10.6132839362 -16.3602558079 0 0 0
2767 1 15.0819807608 -10.3001312805 -16.8029342418 0 0 0
2775 1 15.0191263513 -9.058222879 -17.5502488577 0 0 0
5435 1 16.1339937029 -8.2003346628 -17.7679165218 0 0 0
5517 2 16.4776981735 -6.5279604562 -15.6700576929 0 0 0
5551 3 18.5744425405 -10.5069379625 -16.0304815506 0 0 0
5367 1 17.503855938 -9.8480688554 -16.6771712827 0 0 0
5427 1 17.3882258027 -8.6030968344 -17.3454129357 0 0 0
5447 2 18.3499262873 -8.0122292448 -17.4315173386 0 0 0
5615 4 20.4164535662 -10.1045124401 -16.5798539996 0 0 0
5567 3 20.9278944455 -8.5585897367 -15.4765632293 0 0 0
5391 1 20.2199159446 -7.8902245003 -14.4597519354 0 0 0
5418 1 21.090531063 -6.9077943824 -13.9480928737 0 0 0
5479 2 19.1755418105 -8.1897996634 -14.3165004091 0 0 0
5508 2 21.9106696231 -10.8642053618 -13.6313493837 0 0 0
5346 1 22.1365047387 -7.9268597012 -15.5590391753 0 0 0
5530 2 22.9067863549 -8.1038600962 -16.2924256995 0 0 0
5594 3 22.2828535764 -6.9468064218 -14.6979228594 0 0 0
5498 2 27.1491915152 -6.2204804446 -14.8504939402 0 0 0
5395 1 27.2763697288 -6.0855860511 -17.0117452181 0 0 0
5431 1 31.0826304954 -10.4607746327 -16.4737773851 0 0 0
5439 1 30.85551804 -9.2754346166 -17.1069308264 0 0 0
5455 2 29.7805986533 -8.8477391283 -17.1098635636 0 0 0
5483 2 28.3144621686 -6.0332280298 -17.2800318936 0 0 0
5525 2 29.3207764055 -6.7389215689 -14.95159045 0 0 0
5476 2 28.1378380673 -9.1236983441 -14.2873411202 0 0 0
5421 1 29.4233791982 -7.3051770552 -14.0164133901 0 0 0
85 1 -14.1095485993 -6.0932978502 -15.3939445578 0 0 0
13 1 -14.5284239332 -3.9277859441 -15.059172974 0 0 0
50 1 -13.2748336229 -5.372407895 -16.2218353232 0 0 0
226 3 -13.517593744 -4.0069520391 -15.9687636074 0 0 0
282 4 -12.3644286265 -2.2843566231 -16.6894819105 0 0 0
138 2 -12.5261128487 -5.8315473475 -16.836346118 0 0 0
261 3 -14.8889643772 -5.2058549742 -14.6283013531 0 0 0
181 2 -14.9741953699 -2.9851003023 -14.7356930071 0 0 0
210 2 -10.9043342391 -4.5607411681 -15.015605793 0 0 0
218 3 -10.4873232501 -2.8704642747 -16.3748769746 0 0 0
290 4 -7.6378153999 -5.6122308525 -14.819215731 0 0 0
26 1 -10.1702941155 -3.941233793 -15.5270990797 0 0 0
42 1 -8.2659728167 -3.0135971931 -16.0163016166 0 0 0
274 3 -8.8472858751 -4.0592206609 -15.3179456643 0 0 0
101 1 -6.9480549992 -2.4430504571 -16.0400403122 0 0 0
34 1 -9.2597780995 -2.3112082268 -16.7001721111 0 0 0
2 1 -6.5567116909 -6.1875899733 -17.4178383693 0 0 0
250 3 -6.3460374194 -6.1953848987 -16.10262776 0 0 0
129 2 -6.1947968527 -2.9388758737 -15.3880675936 0 0 0
2749 1 1.2567381598 -5.8667724064 -15.7295443911 0 0 0
2677 1 1.7745088966 -3.8939925892 -15.0160471967 0 0 0
2890 3 2.371750431 -3.9902904617 -16.2442864433 0 0 0
2925 3 1.0790367017 -4.9552394604 -14.7000075225 0 0 0
2714 1 2.1258158746 -5.2626087612 -16.6522110849 0 0 0
2845 2 1.7822322277 -2.946972852 -14.5456635817 0 0 0
2802 2 2.4674472824 -5.6656537188 -17.568656283 0 0 0
2946 4 3.3660750753 -2.4820137792 -17.0194921111 0 0 0
2690 1 5.7921887913 -3.8557439001 -16.1502973868 0 0 0
2874 2 5.1744114368 -4.6782921317 -15.9024899895 0 0 0
2882 3 5.3087559223 -2.7518159816 -16.7990345475 0 0 0
2938 3 7.1409865545 -3.9000709153 -16.003319215 0 0 0
2698 1 6.4908387956 -1.9838706462 -17.1376088535 0 0 0
2706 1 7.5697007723 -2.6799320438 -16.5516954238 0 0 0
2954 4 8.0969054241 -5.4785394524 -15.2018118633 0 0 0
2914 3 9.2699860785 -6.6097194597 -16.3833289543 0 0 0
2666 1 9.6555771798 -6.1247386101 -17.5801547692 0 0 0
2793 2 9.7839229041 -2.9084661924 -16.4358279584 0 0 0
2765 1 8.9505771871 -2.2681338776 -16.6666183014 0 0 0
2826 2 9.127678853 -5.3571880807 -18.1668914303 0 0 0
2842 2 9.1677128566 -2.9146106734 -13.8870043908 0 0 0
2861 2 12.6941660679 -6.069014189 -14.4837881617 0 0 0
3370 2 13.6687589116 -6.4076898234 36.4398028032 0 0 0
5589 3 16.3298690956 -4.5686278888 -14.7193351956 0 0 0
5509 2 16.714280463 -2.5271452684 -14.3909795044 0 0 0
6083 2 16.4875367294 -2.1219795245 36.1837419216 0 0 0
5413 1 16.774487671 -5.4670552732 -15.6595386683 0 0 0
5341 1 17.0676811351 -3.4206390911 -14.8949104289 0 0 0
5378 1 17.790862977 -4.8952851798 -16.3575211238 0 0 0
5466 2 18.5059673363 -5.183130828 -17.1335406551 0 0 0
5554 3 17.9237553564 -3.5461643657 -15.8850402465 0 0 0
5354 1 21.3861911145 -3.6763949269 -15.7008426994 0 0 0
5538 2 20.6808918721 -4.3576058975 -15.209528284 0 0 0
5546 3 20.9754059804 -2.4577537258 -16.1045802835 0 0 0
5610 4 19.0867324977 -2.0614754313 -16.4732606469 0 0 0
5522 2 20.9982053201 -6.1472693613 -13.2119050211 0 0 0
5402 1 26.6793292384 -6.1356903002 -15.7980024021 0 0 0
5571 3 26.3329301736 -5.6617941845 -17.9729203161 0 0 0
5578 3 25.321262381 -5.8573438301 -15.9294674494 0 0 0
5330 1 25.1642041543 -5.6544402078 -17.2660656188 0 0 0
5602 3 22.7609008916 -3.8592026365 -15.7014007585 0 0 0
5370 1 23.2049353812 -2.6825896695 -16.2781088203 0 0 0
5457 2 25.3394037812 -2.9445268407 -16.217413786 0 0 0
5618 4 23.6415311115 -5.5775397319 -14.7760473997 0 0 0
5429 1 24.4789751822 -2.3560319177 -16.6761738543 0 0 0
5490 2 24.1742552068 -5.4026891461 -17.6985532345 0 0 0
234 3 -13.1040757126 -0.6384532944 -15.6770322156 0 0 0
911 1 -14.1757605372 0.2010302475 -15.9304909593 0 0 0
1095 2 -14.5673353456 0.2887183769 -16.9244667794 0 0 0
1159 3 -14.4870828752 0.9659134469 -14.8527122098 0 0 0
58 1 -12.784203156 -0.4104659154 -14.3838897903 0 0 0
983 1 -13.6728029276 0.4863558833 -13.8344923891 0 0 0
1031 2 -10.7992780323 2.4385298314 -17.213130561 0 0 0
146 2 -11.9586214139 -0.9214864678 -13.8179461939 0 0 0
97 1 -8.9928463381 -1.158868655 -17.3957754376 0 0 0
1076 2 -9.0504463571 1.0065709359 -15.5113262034 0 0 0
972 1 -9.3579428272 2.0601415645 -15.5033502035 0 0 0
943 1 -10.2624544916 2.7245368056 -16.2761306896 0 0 0
1148 3 -8.8353318262 2.9225683551 -14.5652453657 0 0 0
117 2 -9.840881489 -0.7362377052 -18.0260223362 0 0 0
109 1 -6.6970275082 -1.2509960896 -16.7100113198 0 0 0
105 1 -7.7245362367 -0.605137377 -17.4069923989 0 0 0
1084 2 -6.3475180747 0.7083603323 -14.654835135 0 0 0
958 1 -2.9216009698 0.6335486095 -17.2503173553 0 0 0
967 1 -2.2149520351 0.8155922738 -16.1313521057 0 0 0
1063 2 -2.2280310731 0.4199510769 -15.078786101 0 0 0
1046 2 -3.8756536373 0.1101982282 -17.341449002 0 0 0
125 2 -5.7598060083 -0.7932050408 -16.5562442844 0 0 0
1134 3 -2.3282537803 1.3129922569 36.4038977037 0 0 -1
1143 3 -1.1076049095 1.6789721902 -16.4490336894 0 0 0
895 1 -1.2065461939 1.8747993613 -17.771437738 0 0 0
1183 4 0.2408164395 2.1705728456 -15.044087561 0 0 0
3575 1 1.9304009081 -0.0691781097 -16.0297547 0 0 0
3759 2 1.406548666 0.0066516969 -16.9491227474 0 0 0
3823 3 1.5763700814 0.6414741977 -14.9620620415 0 0 0
2898 3 2.9632564403 -0.9279550438 -15.7918345712 0 0 0
3647 1 2.49572038 0.2662887099 -13.891047639 0 0 0
3751 2 2.5505581861 0.8364622115 -12.9364674187 0 0 0
2722 1 3.3199464703 -0.6836573804 -14.4895341143 0 0 0
2761 1 6.7568855175 -0.7696087301 -17.8403222106 0 0 0
3636 1 6.6234558278 2.1401075062 -15.6526544663 0 0 0
3695 2 5.5587819611 2.4179249584 -17.6354249496 0 0 0
3740 2 7.0160311925 1.0919468917 -15.7263437082 0 0 0
2810 2 4.1629685269 -1.2039093943 -13.9878723732 0 0 0
2781 2 5.9563705175 -0.3104736777 36.2851905157 0 0 -1
3607 1 5.8332525629 2.8051982842 -16.6329618026 0 0 0
2769 1 8.0505237038 -0.2194016288 -17.8242005591 0 0 0
2773 1 9.0970882868 -0.9777038993 -17.2252748562 0 0 0
2789 2 10.1052933085 -0.6061509817 -17.3454981782 0 0 0
3710 2 11.1287859664 0.9847741195 -17.5379482846 0 0 0
3748 2 9.6576952874 1.4507899394 -14.9769950305 0 0 0
3622 1 12.0921238738 1.4123201888 -17.2965485891 0 0 0
3727 2 12.6648058768 0.9678232544 -15.174395699 0 0 0
2813 2 10.973967245 -0.8583638328 -14.2967365186 0 0 0
3644 1 9.8120830462 0.9523687005 -13.9963528675 0 0 0
3631 1 12.762114667 1.5306427975 -16.0948516255 0 0 0
3807 3 13.8604951309 2.2586786165 -16.3004634684 0 0 0
3847 4 15.3538553932 2.6024786475 -14.8622572762 0 0 0
3559 1 13.9313277017 2.5505091228 -17.6242500397 0 0 0
6487 3 16.854751488 1.1675662708 -14.9009374621 0 0 0
6423 2 17.2642826377 0.6094206431 -16.9667078407 0 0 0
6239 1 17.3845777932 0.4221236359 -15.870031532 0 0 0
5562 3 18.2252407695 -0.5296257325 -15.3914197197 0 0 0
5386 1 18.2323182659 -0.3681910435 -13.9792607272 0 0 0
5362 1 22.1158866774 -1.8232966874 -16.6493638161 0 0 0
5445 2 21.4492881274 0.1053114374 -17.3267308162 0 0 0
6359 2 22.4552634725 2.8307790055 -16.8481609562 0 0 0
5425 1 22.2689273245 -0.5667125146 -17.2802480435 0 0 0
6300 1 23.074572195 2.3714341287 -14.7400736198 0 0 0
6404 2 23.9173174248 1.6997219935 -14.7320816355 0 0 0
5437 1 24.673143549 -1.1659710226 -17.3059593684 0 0 0
5453 2 25.736202324 -0.9235981543 -17.4647812458 0 0 0
5433 1 23.595361626 -0.3300454249 -17.6465580124 0 0 0
6476 3 22.5430747983 2.877651255 -13.5607630723 0 0 0
6271 1 22.3664633563 2.9965883558 -15.7822907426 0 0 0
6337 2 23.7825927643 0.5428595918 36.4107510558 0 0 -1
6374 2 26.7583632093 1.2756222407 -17.3469092296 0 0 0
6511 4 31.212757015 2.5700979899 -14.9967406642 0 0 0
6223 1 29.7994422165 2.1172784829 -17.5082950553 0 0 0
6471 3 29.7027705182 1.9894693172 -16.1423755263 0 0 0
6286 1 27.7680442128 1.5100194834 -17.0877526178 0 0 0
6295 1 28.4445165986 1.472376149 -15.8981861661 0 0 0
6383 2 30.7037911331 2.3522042001 -17.9963590552 0 0 0
6462 3 28.6198743738 1.8707791003 -18.1385149437 0 0 0
1103 2 -12.8118219995 3.2421030896 -15.6892558428 0 0 0
919 1 -13.4903937802 3.9578070881 -16.1250583437 0 0 0
1167 3 -14.8201263372 3.8487313984 -16.1568571371 0 0 0
927 1 -14.1018918011 5.802268096 -17.0469941438 0 0 0
1111 3 -12.944555901 5.0371872907 -16.6996066462 0 0 0
987 1 -14.2422960847 7.0675592989 -17.6883243702 0 0 0
935 1 -15.2828499492 4.981471603 -16.8721287328 0 0 0
1039 2 -11.6398934429 7.331550551 -13.7454249661 0 0 0
1175 4 -11.0482635003 5.6656896738 -16.7184416899 0 0 0
1119 3 -10.2845673982 4.0451496263 -15.8659874738 0 0 0
900 1 -9.4116984823 4.1183961628 -14.8311595158 0 0 0
1127 3 -10.4286173727 7.2852236701 -15.5304168168 0 0 0
1068 2 -9.2839119232 5.0741283569 -14.3348031355 0 0 0
1090 2 -8.8432968907 7.9956085441 -16.8753525136 0 0 0
906 1 -9.3354525235 7.9851822421 -15.8938419387 0 0 0
1019 2 -1.7643563155 4.4859822711 -16.3074706233 0 0 0
1036 2 -3.1078534003 6.1684625893 -14.2047095618 0 0 0
1015 2 -2.3352002748 6.576570926 -17.0359418466 0 0 0
3767 2 3.1466958757 3.5022017097 -15.4407186138 0 0 0
3831 3 1.0975059637 3.8764154029 -15.9025260906 0 0 0
991 1 -0.9422487089 5.1507446592 -16.6511644412 0 0 0
3591 1 1.4099696436 5.7147435284 -17.1661203627 0 0 0
3599 1 0.388762278 4.9157949919 -16.5469403316 0 0 0
3583 1 2.419878706 4.1623003593 -15.9758930481 0 0 0
3651 1 0.9612855235 6.7898432382 -17.9834381472 0 0 0
999 1 -1.3031699854 6.363842541 -17.2595879812 0 0 0
3775 3 2.6894813612 5.2204155373 -16.7550006998 0 0 0
3659 1 -0.3622660481 7.1451805038 -17.9410957903 0 0 0
3812 3 7.0137819622 3.0248291831 -14.6577454205 0 0 0
3783 3 5.7607282228 4.1104916384 -16.1437337059 0 0 0
3564 1 6.3894574943 4.157176254 -14.9879379937 0 0 0
3791 3 5.3301441006 7.2095067161 -15.8746198269 0 0 0
3839 4 4.6834988688 5.5930875985 -16.9482318241 0 0 0
3732 2 6.2896731644 5.0042978868 -14.3040597177 0 0 0
3703 2 3.5567148523 7.8065587317 -14.7515772183 0 0 0
3615 1 4.6532491314 7.9075017279 -14.9130524989 0 0 0
3700 2 12.1594034514 7.0245388858 -14.0634031705 0 0 0
6263 1 16.4092736667 5.3128905734 -16.0958995804 0 0 0
3655 1 15.2119490992 5.8525513306 -16.5785908858 0 0 0
3683 2 14.2667739563 5.3842227328 -16.4069349532 0 0 0
3663 1 15.3719438001 6.9887780424 -17.3804780791 0 0 0
6495 3 16.5917731456 4.2009329317 -15.3001005258 0 0 0
3612 1 12.8952538636 7.6174590224 -13.4930736668 0 0 0
6431 2 18.4317579748 3.1081532364 -14.8391107089 0 0 0
6315 1 17.8106998923 6.994218197 -17.1384736201 0 0 0
6255 1 17.6568227444 5.8665285998 -16.3417337013 0 0 0
6247 1 17.9794057873 4.016083723 -15.2285053851 0 0 0
6439 3 18.6932964801 5.0177271879 -15.8326295048 0 0 0
6503 4 20.6242499898 5.4386946596 -16.1268002213 0 0 0
6455 3 21.2120983078 7.0382491414 -15.0397433648 0 0 0
6447 3 21.5345368705 3.9403259391 -15.2386872615 0 0 0
6367 2 19.9034100301 7.2804069355 -13.3123488195 0 0 0
6228 1 21.6768660018 3.8456121494 -13.8893806118 0 0 0
6335 2 18.7705056606 7.3849972726 -17.3600857716 0 0 0
6279 1 20.8144033593 7.5669005766 -13.8316462484 0 0 0
6234 1 22.3600581514 7.6250015862 -15.3331093226 0 0 0
6418 2 22.9733158017 7.4751415361 -16.2088161078 0 0 0
6391 2 28.2158070814 1.1696885485 -14.8378793572 0 0 0
995 1 -15.461526097 7.4362784353 36.4319574791 0 0 -1
6319 1 30.5695490932 5.3601590664 -17.4094539881 0 0 0
6347 2 29.6891333319 4.7046440535 -17.5010398817 0 0 0
6327 1 30.4948265938 6.6228385553 -17.9993054785 0 0 0
6364 2 27.9465407567 6.5687930126 -14.5976957868 0 0 0
6343 2 29.5193508932 6.872061011 36.1860387629 0 0 -1
6276 1 28.5654117163 7.168030921 -13.974122539 0 0 0
951 1 -10.7705427497 7.7707767491 -14.2092647348 0 0 0
901 1 -14.6238793544 11.8349225123 -15.1833044728 0 0 0
938 1 -13.7557833117 10.500442492 -16.7140216993 0 0 0
1026 2 -13.1108421194 10.1187322473 -17.5173835031 0 0 0
1114 3 -13.8184399413 11.8394465458 -16.3145145888 0 0 0
1149 3 -15.0961760219 10.5850404148 -14.9115486048 0 0 0
973 1 -14.6374284049 9.7737301688 -15.9147874594 0 0 0
1077 2 -14.6624344854 8.7155981441 -15.8835260141 0 0 0
1098 2 -10.848677784 11.2730169953 -15.4381419368 0 0 0
1178 4 -7.7345627298 10.305946257 -15.3937496245 0 0 0
1162 3 -8.8657193266 11.8875988513 -16.0583452845 0 0 0
1154 3 -9.0062915014 8.9104215193 -14.9878556897 0 0 0
914 1 -10.2159279193 11.891797708 -16.0419800847 0 0 0
978 1 -9.8698885942 8.7780860831 -13.910273029 0 0 0
1082 2 -9.6183931708 9.3653422947 -13.0253947085 0 0 0
1146 3 -6.49334748 10.1895344889 -13.8408633973 0 0 0
1043 2 -3.6938853112 8.1945450341 -17.9080878785 0 0 0
1138 3 -6.3817487343 9.798695612 -16.7984452806 0 0 0
890 1 -6.3210380503 10.108312803 -18.046367319 0 0 0
1058 2 -5.0795545692 8.5402441053 -15.5362913055 0 0 0
955 1 -4.5119649937 8.8551613685 -17.694069742 0 0 0
962 1 -5.2876572127 9.0127279583 -16.527043317 0 0 0
1085 2 -1.8875227863 8.5355410347 -14.8955610572 0 0 0
981 1 -2.0636742618 8.1088617591 -13.9071961443 0 0 0
1066 2 -7.125510056 12.1578400899 -13.3739725709 0 0 0
1131 3 -5.2319034275 9.6088219105 36.0340906567 0 0 -1
3741 2 0.9941319214 8.4288152256 -15.1456773972 0 0 0
3637 1 1.2469143796 9.459905923 -15.2969342681 0 0 0
3813 3 0.8096043994 10.4361915056 -14.3940040882 0 0 0
3602 1 1.9356059775 10.0581372865 -16.3162563899 0 0 0
3778 3 1.9679306521 11.4473450196 -16.0532276986 0 0 0
3565 1 1.286649372 11.5839266985 -14.8992187352 0 0 0
3690 2 2.4524914781 9.5946058085 -17.1606318688 0 0 0
4307 2 0.7464336794 12.367516767 35.8036565533 0 0 0
3754 2 7.3966237397 7.1092825986 -16.3011782225 0 0 0
3570 1 6.6136708693 7.5770175478 -15.6978079901 0 0 0
3818 3 6.784326714 8.5121834819 -14.7262254613 0 0 0
3762 2 4.897380139 10.5774363153 -15.9027208438 0 0 0
3826 3 6.8839649468 11.4748007017 -15.8115878009 0 0 0
3578 1 5.4826681256 11.4510369343 -15.9343631407 0 0 0
3642 1 5.5306783977 8.6992501244 -14.1835180641 0 0 0
3842 4 8.033426367 10.037232806 -14.8720781152 0 0 0
3722 2 11.4420359563 8.8631738084 -15.0894304254 0 0 0
3619 1 11.2797524153 8.7902783198 -17.2580145361 0 0 0
3626 1 10.9060508659 9.0962257039 -15.9954034871 0 0 0
3802 3 9.6311308216 9.6162654808 -16.0065198585 0 0 0
3554 1 9.3702237649 9.6995286687 -17.3129636845 0 0 0
6323 1 16.6441544885 7.5173508375 -17.6741023286 0 0 0
3679 2 14.527803263 7.4907622002 -17.8127506223 0 0 0
3707 2 12.1263424682 8.3090929887 -17.6647237754 0 0 0
3749 2 13.8748519391 9.0723412214 -14.9268608122 0 0 0
6477 3 16.9904259433 11.029081695 -14.3168536515 0 0 0
3645 1 13.6825515118 8.7071876058 -13.9072821314 0 0 0
6405 2 17.3236376184 9.0016306122 -14.984907882 0 0 0
6229 1 17.6012253499 12.1951083187 -14.7068146506 0 0 0
6301 1 17.5944292083 10.0536860845 -15.0964784563 0 0 0
6266 1 18.5525675439 10.6629524156 -15.8962556239 0 0 0
6354 2 19.1032225534 10.0981816649 -16.6629647507 0 0 0
6442 3 18.5491871104 12.0243706453 -15.6377805383 0 0 0
6426 2 21.049630982 11.265240746 -15.4534889723 0 0 0
6242 1 21.827199113 11.9320648669 -15.891243484 0 0 0
6306 1 21.786168396 8.4764456815 -13.4421627312 0 0 0
6482 3 22.7697946436 8.4701045403 -14.3777067817 0 0 0
6490 3 23.1057250858 11.6390315876 -15.8709812664 0 0 0
6466 3 25.3799373553 9.605687674 -16.3328473994 0 0 0
6506 4 24.041755571 10.0176079118 -14.7932041959 0 0 0
6218 1 25.2377643055 9.959811696 -17.652465974 0 0 0
6290 1 26.6974168927 9.2760202985 -16.176725099 0 0 0
6386 2 27.094451437 9.0739691086 -15.1808123722 0 0 0
6459 3 26.3985661468 9.9519042942 36.3943699537 0 0 -1
6283 1 27.3424370482 9.5282484996 -17.404325461 0 0 0
6413 2 29.7561260706 8.6420352035 -15.1784243163 0 0 0
6371 2 28.3699650653 9.465119778 -17.66575264 0 0 0
6309 1 29.5099795317 8.0947488777 -14.2686257358 0 0 0
1069 2 -14.9542696831 12.6722165182 -14.5743773681 0 0 0
1122 3 -12.9773129167 15.0722164171 -15.614117838 0 0 0
1170 4 -12.7883616194 13.3558602578 -16.8394106244 0 0 0
1799 1 -13.8775054314 16.0135680391 -16.0790467577 0 0 0
2047 3 -14.525180567 16.720470083 -15.1091679849 0 0 0
946 1 -13.0403697332 15.2509718259 -14.1745691797 0 0 0
1871 1 -13.9776435878 16.198231587 -13.8960248774 0 0 0
1983 2 -14.058564982 16.1164815889 -17.1210389782 0 0 0
1034 2 -12.4213142555 14.6896325684 -13.4690287306 0 0 0
1106 3 -10.7580548518 12.9456858829 -16.63482228 0 0 0
930 1 -8.4935096851 13.0516420144 -16.7063275107 0 0 0
922 1 -9.6856047679 13.6974246516 -17.1370516505 0 0 0
985 1 -9.5040697997 14.9074847453 -17.8346013161 0 0 0
989 1 -7.1840626491 13.4660433197 -16.9104384181 0 0 0
997 1 -7.0056337321 14.6725368846 -17.6506936467 0 0 0
1964 2 -9.2630611475 16.4233154512 -15.2353431715 0 0 0
1005 2 -10.4405274893 15.4714944224 -18.0227972982 0 0 0
993 1 -8.2001333109 15.3722419606 -18.0798342909 0 0 0
1897 2 -8.0960815798 16.2553143364 35.985460325 0 0 -1
1017 2 -6.3001490821 12.9444671903 -16.5567820089 0 0 0
1972 2 -7.0173616495 15.9185513785 -14.8569649084 0 0 0
1013 2 -6.094964069 15.2906754109 -17.6296648856 0 0 0
1037 2 -5.1815672272 14.0435415858 -13.9085210079 0 0 0
2022 3 -2.6018455514 17.2946437654 36.2739429835 0 0 -1
1868 1 -6.7649589137 15.6604295071 -13.7840522188 0 0 0
4463 1 1.4526159196 15.4980178953 -15.8194794427 0 0 0
4647 2 1.0305091831 15.4618497281 -16.8167516889 0 0 0
4711 3 1.0150279569 16.2384928664 -14.7447056604 0 0 0
3786 3 2.5295900123 14.7161978786 -15.5809741505 0 0 0
1783 1 -1.5618274654 17.4815242262 -17.6193300132 0 0 0
1943 2 -0.5491306082 17.6587237346 -17.9599594225 0 0 0
4535 1 1.9090283549 15.8248307099 -13.6673417112 0 0 0
4386 3 2.660214986 13.4266525627 36.0262163294 0 0 0
3834 4 3.087645472 13.0818922992 -16.8492304593 0 0 0
3770 3 4.9106648748 12.629255937 -16.2082504699 0 0 0
3586 1 5.9938868492 13.4705035943 -16.4619927017 0 0 0
3649 1 6.0333061837 14.7695202838 -16.9056942556 0 0 0
4628 2 5.9198743627 16.5982264677 -14.4276962727 0 0 0
3669 2 5.0992615889 15.3407730429 -17.0837743507 0 0 0
3594 1 7.2135723837 12.7319022847 -16.213061836 0 0 0
3610 1 2.8642490446 15.0277297972 -14.2541912721 0 0 0
3698 2 3.8417045459 14.6835255959 -13.8764645625 0 0 0
3681 2 9.3564646641 12.7077390548 -16.0668874594 0 0 0
3653 1 8.4506401435 13.342902381 -16.3927323949 0 0 0
3661 1 8.4523560339 14.6964516421 -16.7397294118 0 0 0
3677 2 9.385416435 15.2013584246 -16.9015241293 0 0 0
4636 2 10.795105574 17.7062019918 -13.9816632612 0 0 0
4598 2 11.7046905673 15.9588155163 -17.2904158373 0 0 0
3657 1 7.2590808556 15.3837016304 -17.0344514201 0 0 0
4561 2 7.2866670871 16.4593714175 -17.2084589535 0 0 0
6397 2 17.4189052885 13.2228410701 -14.293492788 0 0 0
7375 3 17.4476852885 16.6027366141 -14.3159797896 0 0 0
4686 3 13.3565849607 17.1175815483 -17.9837031633 0 0 0
4510 1 12.6661394726 16.3770241214 -17.0179474602 0 0 0
4615 2 13.1998241098 15.9049751116 -14.8983773491 0 0 0
4519 1 13.3675636428 16.4321552517 -15.8557919644 0 0 0
7311 2 17.3564124529 15.9302488561 -16.3717798981 0 0 0
7127 1 17.8627152172 15.9182121422 -15.4417237452 0 0 0
6434 3 21.5725491321 13.1582803073 -16.4044317113 0 0 0
6498 4 19.6200984164 13.6555271394 -16.4162428004 0 0 0
6450 3 18.980436792 15.1417745664 -15.2484000528 0 0 0
6274 1 19.3830051778 15.4247192313 -13.9757544758 0 0 0
6333 2 22.2164638889 15.3999437234 -17.7839817794 0 0 0
6250 1 22.7837482834 13.5963522254 -16.8282148947 0 0 0
6313 1 23.0505034476 14.8173476731 -17.472517314 0 0 0
6345 2 25.9924438961 12.3436388598 -16.395162859 0 0 0
6258 1 23.7928496586 12.7019307618 -16.4384677838 0 0 0
6317 1 25.1794755629 12.9674998147 -16.7060998766 0 0 0
6325 1 25.4173728005 14.1660049641 -17.3465971907 0 0 0
7262 2 26.6776942122 17.3960611006 -17.3561699356 0 0 0
7292 2 21.7714534309 16.6307233543 -14.8708363678 0 0 0
6341 2 26.4676492666 14.4608458841 -17.6212740767 0 0 0
6321 1 24.3872530928 15.0932342892 -17.7518008637 0 0 0
7279 2 28.0007114237 17.5966784307 -15.0734539183 0 0 0
7174 1 27.6937629223 17.6083654722 -17.241014207 0 0 0
1807 1 -13.3630340092 19.6599531519 -16.5699089906 0 0 0
1991 2 -12.6487268151 18.9007319784 -16.3857371774 0 0 0
1999 3 -12.9079298441 20.7693432972 -17.1200962948 0 0 0
2055 3 -14.6823789884 19.7170381893 -16.147048896 0 0 0
1823 1 -15.0725715966 20.9908294092 -16.5797813117 0 0 0
1815 1 -13.9914922497 21.5987223466 -17.2031033595 0 0 0
2063 4 -10.9852004186 21.0729693732 -17.0616976924 0 0 0
1919 2 -10.4995314891 17.6115908302 -17.2761769794 0 0 0
1860 1 -9.4286083743 17.5016117824 -15.3584990923 0 0 0
2007 3 -10.1179813794 19.4826375064 -16.1852784197 0 0 0
1831 1 -10.045876527 18.1274628449 -16.4096798538 0 0 0
1788 1 -9.6406195693 19.6239762274 -14.9239953801 0 0 0
1956 2 -9.4610591954 20.6464669819 -14.5216218403 0 0 0
2036 3 -9.171343529 18.4841700791 -14.4055193926 0 0 0
1934 2 -4.6481070104 16.7647778808 -17.9566511016 0 0 0
1951 2 -3.8338989978 16.9569020953 -15.4473261012 0 0 0
1855 1 -3.2255071026 17.0525538597 -16.3169604124 0 0 0
1846 1 -3.6645998702 17.0325857818 -17.593772597 0 0 0
1907 2 -1.769441646 20.1107413932 -16.6609199239 0 0 0
2031 3 -1.8778491777 17.392672788 -16.3286258193 0 0 0
1879 1 -0.8780398456 20.6703741276 -16.771286341 0 0 0
2071 4 -0.4214330569 17.5817987057 -14.9936881148 0 0 0
4471 1 2.0914312567 19.2017904576 -15.5888750198 0 0 0
4487 1 0.3560220637 20.1702763917 -16.4177276868 0 0 0
4719 3 0.7681363271 19.0238577891 -15.7296463727 0 0 0
4479 1 1.4732210958 20.9372838725 -16.7778912154 0 0 0
4663 3 2.5866669982 20.3302725675 -16.1754670641 0 0 0
4655 2 2.6465909031 18.445850708 -15.0887152918 0 0 0
4524 1 5.9079022462 17.6671490954 -14.6551240057 0 0 0
4583 2 4.4904729867 18.0216994652 -16.4359174162 0 0 0
4495 1 5.204628894 18.3421493433 -15.6419358813 0 0 0
4452 1 6.6647146037 19.7688756719 -14.7912416828 0 0 0
4671 3 5.6788477378 19.6821859715 -15.7241305498 0 0 0
4727 4 4.3933244863 21.0521006205 -16.510229046 0 0 0
4700 3 6.8401568627 18.5968399188 -14.1133098498 0 0 0
4620 2 7.2509403454 20.699210844 -14.6919322459 0 0 0